# vtk DataFile Version 3.0
array.1
ASCII
DATASET STRUCTURED_POINTS
DIMENSIONS 1 321 161
ORIGIN 1500.01 799.99 0.001
SPACING 0 1.25 1.25
POINT_DATA 51681
 FIELD attributes 2
T 1 51681 float
299.999529136
 299.999505812
 299.999513947
 299.999498843
 299.999593792
 299.999981979
 300.000454304
 300.000517815
 300.000304549
 300.000291686
 300.000268204
 300.000031062
 299.999759354
 299.999629492
 299.999723957
 299.999951998
 300.000273627
 300.000258274
 300.000009375
 299.999878271
 299.999851055
 299.999877691
 299.999812004
 300.000023804
 300.000083607
 299.999875927
 299.999935382
 300.000164508
 300.000031391
 299.999744911
 299.999613465
 299.999379121
 299.999477492
 299.999761134
 299.999818132
 299.999978482
 299.999993644
 299.999752867
 299.999574051
 299.999646927
 299.999784331
 299.999670094
 299.999300622
 299.999120781
 299.999460646
 299.99979933
 299.999759173
 299.999709056
 299.999883641
 299.999869716
 299.999487202
 299.999221915
 299.99939807
 299.999651871
 299.999663376
 299.999651932
 299.999777808
 299.999924227
 300.000003434
 300.000027362
 299.999902057
 299.999835057
 299.999785443
 299.999471938
 299.999490734
 299.999446342
 299.999289633
 299.999472488
 299.999623894
 299.999584889
 299.999543585
 299.999730892
 299.999709836
 299.999764782
 300.000021794
 299.999974701
 299.999874832
 299.999909502
 299.999963233
 299.999857149
 299.999668018
 299.999597459
 299.999930829
 300.000267942
 300.000183316
 300.000001492
 299.999895987
 299.999942528
 299.999942525
 299.999772616
 299.999873753
 299.999985284
 299.999898635
 299.999846503
 300.000020762
 300.000027638
 300.000126138
 300.000163442
 299.999857655
 299.999812435
 299.999712632
 299.999650431
 299.999665871
 299.999692635
 299.999768317
 299.999798487
 299.999669777
 299.999626764
 299.999718573
 299.999768151
 299.999737377
 299.999731786
 299.999810515
 299.999846458
 299.999875099
 299.999862191
 299.99980627
 299.99982129
 299.999838352
 299.999834979
 300.000005678
 300.000203438
 300.000076391
 299.999899675
 299.999966092
 299.999831986
 299.999758869
 299.999795348
 299.999677273
 299.999766867
 299.999837916
 299.999876722
 300.000025958
 300.000108884
 300.000057189
 299.999900881
 299.999686372
 299.99947056
 299.999487092
 299.999588697
 299.999561367
 299.999682315
 299.99982764
 299.999754155
 299.999649029
 299.999633133
 299.99982469
 300.000083142
 300.000060687
 299.999835546
 299.99971237
 299.999722104
 299.999794944
 299.999886146
 299.999892204
 299.999765077
 299.999653036
 299.99964198
 299.999563218
 299.999545458
 299.999737716
 299.999864043
 299.999933466
 299.999816574
 299.99986692
 300.00017128
 300.000133282
 299.999811785
 299.999641927
 299.999714905
 299.999742735
 299.999749756
 299.999685757
 299.999546584
 299.99946867
 299.999467004
 299.999116939
 299.99870994
 299.998754521
 299.998631212
 299.998292226
 299.998009941
 299.998409111
 299.999445925
 299.999754709
 299.999495265
 299.999431619
 299.999465198
 299.99948637
 299.99967179
 299.999973876
 300.000222635
 300.000316329
 300.000182119
 300.000102379
 300.000108145
 300.000097002
 299.999958244
 299.999554358
 299.999276109
 299.999651094
 299.999979823
 299.999872173
 299.999667059
 299.999517601
 299.999408029
 299.999222906
 299.999321901
 299.999472004
 299.999464454
 299.999448298
 299.999594993
 299.999591642
 299.999291744
 299.999454736
 299.999774115
 299.999716178
 299.999563625
 299.999456654
 299.999654746
 299.999702489
 299.999553051
 299.999635837
 299.999754138
 300.000032815
 300.000363344
 300.000101834
 299.999899702
 299.999847901
 299.999634515
 299.999451264
 299.999171231
 299.999265804
 299.999449688
 299.999261085
 299.998965749
 299.998867238
 299.998878383
 299.998995969
 299.999080908
 299.998946922
 299.99868389
 299.998512801
 299.998752884
 299.999185398
 299.9993474
 299.999296508
 299.999452087
 299.999890463
 300.000240374
 300.000167934
 299.999872526
 299.999876862
 300.000017774
 300.000022737
 300.000007024
 300.000059231
 300.000284346
 300.000244812
 299.999917133
 299.999791098
 299.999862589
 299.999910222
 299.99981239
 299.999782694
 299.999853365
 299.99974368
 299.999598426
 299.999652491
 299.999907233
 300.000077858
 299.999790844
 299.99943526
 299.999546578
 299.999736301
 299.999630539
 299.999556144
 299.999570526
 299.999709766
 299.999932757
 300.000058892
 300.000199502
 300.000160551
 299.999848232
 299.999939819
 300.000147326
 300.000068382
 299.999918569
 300.000020875
 300.000290646
 300.000142243
 299.999847035
 299.999934789
 299.99998341
 299.999920597
 300.000031845
 300.000005424
 299.999797652
 299.999677929
 299.999624661
 299.999579478
 299.999831913
 299.999920765
 299.999714746
 299.999523693
 299.999403359
 299.999383824
 299.99939433
 299.999428864
 299.999473356
 299.999624896
 299.999824295
 300.000020887
 300.000061179
 300.000041695
 300.000107615
 300.000228119
 300.000293716
 300.000252259
 300.000222582
 300.000018605
 299.999580706
 299.999605839
 299.999675127
 299.999737249
 299.999800115
 300.000033196
 300.00032507
 300.000433601
 300.000340212
 300.000224749
 300.000233713
 300.000117384
 299.99985661
 299.999779293
 299.999909673
 299.999977587
 300.000008057
 300.000006615
 299.999821918
 299.999663508
 299.999792632
 299.999878159
 299.999748864
 299.999911266
 300.000134572
 300.000189341
 300.00022794
 300.000189468
 299.999959109
 299.999834244
 300.000014201
 299.999873304
 299.999749791
 300.00055949
 300.000925769
 300.000103433
 299.999742795
 300.000127965
 300.000155035
 299.999968612
 299.99986265
 299.999652715
 299.999444128
 299.99931632
 299.999741832
 300.000161223
 299.999981268
 299.999827452
 299.9997636
 299.999811194
 299.999685628
 299.999256631
 299.999127205
 299.999310612
 299.999666268
 300.000010486
 299.999907356
 299.999864667
 299.999944855
 299.999954265
 300.000004407
 299.9999588
 299.999920927
 299.999629807
 299.99955874
 299.999444948
 299.999220443
 299.999362051
 299.999540774
 299.999608088
 299.999630095
 299.999733445
 299.999680379
 299.999645199
 299.999782585
 299.999772695
 299.999749224
 299.999856459
 299.999942543
 299.999859275
 299.999823491
 300.000040705
 300.000236661
 300.000220784
 300.00015502
 300.000061202
 299.999945966
 300.000006542
 300.000042783
 299.999798707
 299.999651544
 299.999795001
 299.999864112
 299.999721127
 299.999929533
 300.000181618
 300.00024787
 299.999986575
 299.999657009
 299.999705134
 299.999691842
 299.999747545
 299.999762078
 299.999723005
 299.999749705
 299.999777957
 299.999794183
 299.999861601
 299.999882749
 299.999806656
 299.99982705
 299.999893226
 299.999898902
 299.999878794
 299.999956112
 300.000092078
 300.00006579
 299.999991554
 300.000028104
 299.999960117
 299.999675892
 299.999736613
 300.000242726
 300.000529267
 300.000313664
 300.000135892
 300.000206933
 299.999995974
 299.999818228
 300.000026219
 300.000079293
 299.999888061
 299.999808479
 299.999934031
 300.000044428
 299.999967554
 299.999796508
 299.999654691
 299.99974385
 299.999835761
 299.999676574
 299.999686734
 299.999835627
 299.999795684
 299.999721747
 299.999717148
 299.999809313
 299.999965635
 299.999989151
 299.999864734
 299.999771102
 299.999819161
 299.999841493
 299.999789599
 299.999771092
 299.999749936
 299.999737765
 299.999809164
 299.999817039
 299.999790102
 299.999994382
 300.000152773
 300.000142315
 300.000042099
 300.000159637
 300.000446254
 300.000394777
 299.999956269
 299.999649679
 299.999593804
 299.9995272
 299.999497998
 299.99932413
 299.999127533
 299.999080116
 299.99906905
 299.998776259
 299.998869682
 299.999375376
 299.999297326
 299.998958149
 299.998419831
 299.998524009
 299.999310796
 299.999321102
 299.999039296
 299.999189033
 299.999403708
 299.999505364
 299.999676199
 299.999820135
 299.999908796
 300.000025833
 300.00006089
 300.00003821
 300.00009708
 300.000271026
 300.000127237
 299.999560971
 299.999191441
 299.999583777
 299.999942085
 299.999718498
 299.999594435
 299.99962351
 299.999471453
 299.999220396
 299.999269139
 299.999552762
 299.999609934
 299.999497636
 299.999605284
 299.999618794
 299.999402325
 299.999467415
 299.999713414
 299.99964591
 299.999326966
 299.9989846
 299.999038943
 299.999184009
 299.999039537
 299.999170304
 299.999504086
 299.999812089
 300.000133966
 299.999897388
 299.999837318
 300.000080145
 299.999862267
 299.999514467
 299.999333272
 299.999689929
 299.999834352
 299.999637962
 299.999335936
 299.998927052
 299.999054089
 299.999290281
 299.999342737
 299.999297475
 299.999050056
 299.998780405
 299.998783379
 299.999120653
 299.999369693
 299.999560711
 299.999916649
 300.000036357
 300.000081894
 300.000236124
 300.000140158
 300.000057045
 300.000070974
 300.000030906
 300.000009839
 300.000002025
 300.000233074
 300.000288658
 299.999891614
 299.999772267
 299.999957945
 300.000020261
 299.999961287
 299.999961914
 299.999979235
 299.999742453
 299.999518026
 299.999580386
 299.999860066
 300.000047671
 299.999797424
 299.999449675
 299.999579936
 299.999769934
 299.999682567
 299.999667977
 299.99963082
 299.999803339
 300.000055341
 299.999937912
 299.999833808
 300.000007165
 300.000066192
 300.000217057
 300.000393381
 300.000277709
 300.00016164
 300.000263371
 300.000348648
 300.000109696
 299.999938529
 300.000010587
 299.999887368
 299.999738125
 299.999847351
 300.000031884
 300.000042786
 299.999859796
 299.999641504
 299.999672261
 300.00008672
 299.999919142
 299.999397128
 299.99930626
 299.999392495
 299.999435377
 299.999417974
 299.999457588
 299.999503753
 299.999590762
 299.999734695
 299.999929165
 300.000028191
 299.999945596
 299.999851832
 299.999936137
 300.000060631
 300.000052075
 300.00000791
 299.999903343
 299.999715195
 299.999735555
 299.999810891
 299.999950603
 300.000017505
 300.000076904
 300.000185046
 300.000346805
 300.000374493
 300.000186878
 300.00025621
 300.00027938
 300.00002508
 299.999972866
 300.000035611
 299.999995638
 299.999830545
 299.999746224
 299.999631044
 299.999541044
 299.999728462
 299.999867432
 299.999853166
 299.999909685
 300.000074813
 300.000249003
 300.00030578
 300.000132319
 299.999972733
 300.000030687
 300.000208661
 300.000218205
 300.000197633
 300.001039122
 300.001475562
 300.000418235
 299.999940485
 300.000561843
 300.000611947
 300.000225607
 300.000005639
 299.999756308
 299.999673668
 299.99949478
 299.99974036
 300.000139191
 300.000094077
 300.000131963
 299.999864176
 299.999831609
 299.999828284
 299.999282447
 299.999097112
 299.99933249
 299.999633969
 299.999971927
 300.000193933
 300.00041279
 300.000376295
 299.999768154
 299.999553683
 299.99985598
 300.000092915
 299.999865037
 299.999713449
 299.999589576
 299.999293143
 299.999324202
 299.999523475
 299.999724519
 299.999817051
 299.999932836
 300.000142278
 299.999952199
 299.999668693
 299.999809713
 299.999796596
 299.999649662
 299.999726822
 299.999819797
 299.999989653
 300.000293789
 300.000235589
 300.000078809
 300.000008897
 299.999894981
 299.99989055
 299.999915758
 299.99990413
 299.999667986
 299.99925001
 299.999327853
 299.999631635
 299.999573652
 299.999794036
 300.00019266
 300.000196605
 299.999786005
 299.999535238
 299.999598647
 299.999619513
 299.999752971
 299.999785093
 299.999659251
 299.999618157
 299.999721741
 299.99987553
 299.999968799
 299.999955141
 299.999887985
 300.000008885
 300.000095086
 300.000028996
 299.999972124
 300.000105367
 300.000384065
 300.000407193
 300.000203799
 300.000173622
 299.99993835
 299.999305754
 299.999577704
 300.000656404
 300.001163301
 300.000800066
 300.000655408
 300.000632173
 300.000264139
 300.00028498
 300.000598838
 300.000615014
 300.000139688
 299.999682973
 299.999635389
 299.999847027
 299.999968028
 299.999887642
 299.999797863
 299.999867106
 299.999930506
 299.999828515
 299.999793293
 299.999820369
 299.999799055
 299.999778654
 299.999712861
 299.999712834
 299.999801061
 299.999824658
 299.999792658
 299.999736703
 299.999763578
 299.999758133
 299.999696582
 299.999729575
 299.999831695
 299.999924665
 300.000014854
 300.000023924
 300.000043725
 300.000236829
 300.000385897
 300.000329541
 300.000296982
 300.00047802
 300.00058747
 300.000464823
 300.000049419
 299.999701593
 299.999579207
 299.999450492
 299.99916931
 299.998729378
 299.998627368
 299.998725945
 299.998783375
 299.998886638
 299.999340815
 299.999822962
 299.999867676
 299.999782144
 299.999302944
 299.999019152
 299.999023124
 299.998744364
 299.998738592
 299.99906346
 299.999262925
 299.999453042
 299.999709561
 299.999720548
 299.999658353
 299.999743524
 299.999810262
 299.999826717
 300.000000341
 300.000301083
 300.000172081
 299.999737687
 299.999509151
 299.999610882
 299.999743705
 299.999538416
 299.999533551
 299.999778922
 299.999652408
 299.999379283
 299.999424814
 299.999756444
 299.999838892
 299.99968078
 299.999628591
 299.999519774
 299.999282241
 299.999117116
 299.999414294
 299.999346134
 299.998561008
 299.997958677
 299.997878178
 299.998019502
 299.997933658
 299.998349779
 299.999274818
 299.999693781
 299.999809277
 299.999685793
 299.99975104
 300.000052009
 300.00007671
 299.999972295
 299.99982873
 300.000086045
 300.000206442
 300.000185664
 299.999952325
 299.99943577
 299.999592222
 299.999819471
 299.999769861
 299.999694909
 299.999534178
 299.999211905
 299.998942379
 299.99930625
 299.999551679
 299.99961162
 299.999850431
 299.999807444
 299.99965952
 299.999984873
 300.000442096
 300.000376906
 300.000186517
 300.000047982
 299.999968803
 299.999868361
 300.000076365
 300.000260175
 299.999985092
 299.999938577
 300.000149328
 300.000218207
 300.000104684
 300.000047699
 300.00005107
 299.999747364
 299.999394321
 299.999406804
 299.99966837
 299.999869936
 299.999886237
 299.999960127
 300.000110253
 300.000038905
 299.99987911
 299.999888992
 299.999883878
 299.999963326
 300.000117987
 299.999956235
 299.999802682
 300.000064614
 300.000280734
 300.000331803
 300.000376208
 300.000315274
 300.000377623
 300.000462877
 300.000355773
 300.000213663
 300.000209104
 300.000094515
 299.999839225
 299.999746852
 299.999846039
 300.000046498
 300.000107532
 299.999953319
 299.999691574
 299.999711758
 299.999964561
 299.999775216
 299.999345277
 299.99931117
 299.999491757
 299.999538183
 299.999501503
 299.999531161
 299.999650565
 299.999753271
 299.999764729
 299.999747144
 299.999753551
 299.999623561
 299.999453503
 299.999524771
 299.999626014
 299.999658417
 299.999585755
 299.999494903
 299.999917781
 299.999925989
 299.999930815
 300.000003825
 300.000081206
 300.000119465
 300.000193047
 300.000316298
 300.000343659
 300.000274115
 300.000300821
 300.000337333
 300.000203335
 300.00009712
 300.000041133
 299.999975763
 299.999814212
 299.999679347
 299.999642791
 299.9996842
 299.999748008
 299.999800671
 299.999945894
 300.000008321
 299.999945532
 299.999875647
 299.999860202
 299.999821616
 299.999791267
 299.999759124
 299.999774189
 300.000118295
 300.000504252
 300.000847409
 300.000995756
 300.000700547
 300.000622434
 300.000813314
 300.000543155
 300.000105153
 300.000024115
 299.99991191
 299.999690775
 299.999421449
 299.999428009
 299.999681699
 299.999922892
 300.000229475
 300.000111281
 299.999888102
 299.99952367
 299.998898989
 299.99896304
 299.999505779
 299.999640091
 299.999751057
 300.000273004
 300.000672811
 300.000770607
 299.999814775
 299.999081113
 299.999697288
 300.000279065
 300.000054731
 299.999763489
 299.999573083
 299.99923633
 299.999321845
 299.999715038
 299.999984429
 299.999998941
 300.000067326
 300.000430644
 300.000318725
 299.999876922
 299.999988496
 299.9999343
 299.999586249
 299.999589932
 299.999817007
 300.000045683
 300.000104017
 299.999901474
 299.999876058
 299.999736385
 299.999555191
 299.999718636
 299.999738427
 299.999655443
 299.99957166
 299.999308396
 299.99930352
 299.99952929
 299.999602289
 299.99981993
 299.999953725
 299.999846161
 299.999820302
 299.999736935
 299.999666465
 299.999707489
 299.999852696
 299.999940913
 299.999819028
 299.999727413
 299.999843064
 299.999973782
 299.999965916
 299.999914884
 299.999886128
 299.999938784
 300.000022095
 299.999983861
 299.999924962
 300.000100818
 300.000396727
 300.000352779
 300.000182106
 300.000526027
 300.000517807
 299.999764137
 299.999738203
 300.000380007
 300.000747488
 300.000674293
 300.000565735
 300.000306036
 300.000206243
 300.000666835
 300.000887306
 300.000720808
 300.000320027
 299.999896349
 299.999638747
 299.999689636
 299.999878722
 299.999843096
 299.999710305
 299.999631462
 299.999638989
 299.99975795
 299.999830652
 299.999807007
 299.999764533
 299.999711761
 299.999623511
 299.999618672
 299.999709525
 299.999722105
 299.999701907
 299.999743976
 299.999720779
 299.999670624
 299.999765869
 299.999918733
 300.000023408
 300.000034057
 300.000004716
 300.000040639
 300.00024306
 300.000373777
 300.000348964
 300.000321644
 300.000362644
 300.000543963
 300.0004854
 300.00025787
 300.000053526
 299.999862593
 299.999928376
 299.999762022
 299.999000138
 299.998282113
 299.998237451
 299.998564283
 299.998845826
 299.999196532
 299.999455673
 299.999537071
 299.999691395
 299.999881539
 299.999814512
 299.999374231
 299.998873658
 299.998736366
 299.998848551
 299.998945085
 299.998942963
 299.999132616
 299.999533507
 299.999663254
 299.999597196
 299.999690925
 299.999692886
 299.999672387
 299.999937738
 300.000165213
 300.000018895
 299.999820836
 299.999770393
 299.999611201
 299.999496348
 299.999387651
 299.999392557
 299.999628717
 299.999726977
 299.999699324
 299.999744948
 299.999852794
 299.999810432
 299.999668608
 299.999554568
 299.999356038
 299.998973266
 299.998504049
 299.99834817
 299.998006551
 299.997310145
 299.996975556
 299.997094896
 299.997071707
 299.997152201
 299.997786692
 299.998649637
 299.999238755
 299.999525719
 299.999603181
 299.999645728
 299.999760451
 299.999861925
 300.000131057
 300.000259436
 300.000291864
 300.000379316
 300.000434965
 300.000129731
 299.999869948
 299.999987966
 300.000132084
 300.000042163
 299.999877474
 299.999799887
 299.999584241
 299.999431724
 299.999582842
 299.999424297
 299.99922116
 299.999205062
 299.999340772
 299.999592459
 299.99986287
 300.000230667
 300.00020015
 300.00023468
 300.000238637
 300.000082138
 299.999913463
 300.000007177
 300.000216319
 300.000182027
 300.000216291
 300.000252416
 300.00014952
 299.99993413
 299.999896942
 299.999953308
 299.999708947
 299.999306551
 299.999211549
 299.9994522
 299.999738261
 299.999986998
 300.00037956
 300.000460293
 300.000117446
 299.999825085
 299.999742521
 299.999888955
 299.999928927
 299.999969389
 300.000119828
 300.000234683
 300.00032154
 300.000256846
 300.000117669
 300.000060407
 300.000103892
 300.000328423
 300.000484365
 300.000514156
 300.000508814
 300.000390756
 300.000229532
 300.000132149
 300.000066871
 300.000057611
 300.00000081
 299.999912144
 299.999811
 299.999701921
 299.999707352
 299.999541396
 299.999483499
 299.999476903
 299.999432095
 299.99955368
 299.999567677
 299.999501348
 299.999535627
 299.999745898
 299.999943667
 299.999949668
 299.999778712
 299.99963487
 299.999517173
 299.99939646
 299.999454889
 299.99944159
 299.999399912
 299.999391306
 299.999348901
 300.000079697
 300.000192988
 300.000159607
 300.00016843
 300.000192669
 300.000163199
 300.000170867
 300.000215865
 300.0002257
 300.000296862
 300.000282553
 300.000264265
 300.000204711
 300.000060822
 300.000013196
 299.999945665
 299.999725162
 299.999614959
 299.999673664
 299.999758319
 299.999767885
 299.999731997
 299.999804966
 299.99982411
 299.999820849
 299.999880296
 299.999831761
 299.999764647
 299.99975384
 299.999596803
 299.999663483
 300.00016919
 300.000601882
 300.000964503
 300.001264962
 300.001032573
 300.000798293
 300.000937109
 300.000778959
 300.00035174
 300.000174704
 300.000076382
 299.999704753
 299.999372469
 299.999344408
 299.999460278
 299.999583231
 299.999610116
 299.99965854
 299.999819456
 299.999608347
 299.998859241
 299.99875314
 299.999514827
 300.000030322
 300.000208555
 300.000255823
 300.000448649
 300.000850604
 300.000431499
 299.999814993
 300.000059226
 300.000389161
 300.000010837
 299.999675233
 299.999598598
 299.999320351
 299.999319829
 299.999759172
 300.000169991
 300.000195506
 300.00010995
 300.00020741
 300.000141087
 299.999865512
 299.999782497
 299.999770107
 299.999675277
 299.999679567
 299.999870593
 300.000042245
 300.000073183
 299.999914694
 299.999779662
 299.999673554
 299.999569556
 299.999660258
 299.999734039
 299.999729217
 299.999702085
 299.999567801
 299.999635723
 299.999890249
 300.000042375
 299.999988391
 299.999706428
 299.999647447
 299.999818153
 299.999703582
 299.999630175
 299.999799426
 299.999974903
 300.000087913
 300.000042215
 299.999984454
 300.000103606
 300.000290902
 300.000324236
 300.000235324
 300.00011465
 300.000015483
 300.000077811
 300.000060718
 299.999945964
 300.000060613
 300.000333399
 300.000259353
 300.000215017
 300.000830326
 300.001022018
 300.00017218
 299.999583072
 299.999897185
 300.000412668
 300.00040077
 300.000239993
 300.000070416
 300.000077259
 300.000573614
 300.000615826
 300.000265884
 300.000099541
 300.000026832
 299.999860299
 299.999750554
 299.999784719
 299.999798583
 299.999738599
 299.99966055
 299.999626138
 299.999692747
 299.9997911
 299.999834203
 299.999777733
 299.999687588
 299.999680314
 299.999679561
 299.999690781
 299.999665664
 299.99971356
 299.999964263
 299.999965033
 299.999762103
 299.999827027
 300.000039594
 300.000129339
 300.000032601
 299.999970435
 300.000090964
 300.000401532
 300.000590122
 300.000444494
 300.000289777
 300.00020874
 300.00029925
 300.000356088
 300.000232385
 300.00012189
 300.00005527
 300.000142683
 299.999738948
 299.998741659
 299.998006752
 299.997948577
 299.998435995
 299.998957943
 299.999279982
 299.999543162
 299.999692368
 299.999808735
 299.999954744
 299.999862262
 299.999473625
 299.999148792
 299.998989712
 299.998786689
 299.998709477
 299.998850382
 299.999064184
 299.999301617
 299.999513886
 299.999609751
 299.999775897
 299.999715249
 299.999454
 299.99967313
 299.999988978
 299.999927141
 299.999766668
 299.999650012
 299.999507241
 299.999420943
 299.999354857
 299.999280378
 299.999329911
 299.999553683
 299.999753588
 299.9996903
 299.999558877
 299.99944919
 299.99935222
 299.999407256
 299.999297962
 299.998872195
 299.998262572
 299.997670874
 299.997384974
 299.997404848
 299.997375565
 299.997670112
 299.997590283
 299.997327871
 299.997424873
 299.997509043
 299.997981099
 299.998852225
 299.999186404
 299.999022673
 299.999250889
 299.999345437
 299.99945913
 299.999796944
 300.000187749
 300.000499528
 300.000563356
 300.000213464
 300.000086705
 300.000260547
 300.000435437
 300.000298803
 299.999963035
 299.999769093
 299.99960456
 299.999636874
 299.999404051
 299.999092397
 299.999099215
 299.999141834
 299.999306197
 299.999813585
 300.000118446
 299.999922692
 299.999655326
 299.999874975
 300.000180704
 300.000106725
 299.999966859
 299.999975803
 300.000094646
 300.000134417
 300.000176112
 300.00013169
 299.999934604
 299.999761203
 299.999819957
 299.999891513
 299.999687376
 299.999307057
 299.999175575
 299.99946887
 299.999858266
 299.99997516
 300.000096073
 300.000242641
 300.000119745
 299.999868711
 299.999785396
 300.000000036
 300.000083708
 300.000000877
 300.000109847
 300.000220525
 300.000270222
 300.000190887
 300.000037805
 299.999959052
 299.999975389
 300.000168115
 300.000397872
 300.000604475
 300.000571705
 300.000444709
 300.000487813
 300.000464492
 300.000247551
 300.000060082
 299.9999475
 299.999850022
 299.999759932
 299.999739106
 299.999745676
 299.999589405
 299.99945021
 299.99938552
 299.999414299
 299.999605809
 299.999640231
 299.999493964
 299.999472535
 299.999661378
 299.999866569
 299.999932153
 299.999849223
 299.999737172
 299.999722854
 299.999707499
 299.999754316
 299.999784115
 299.999676459
 299.999766587
 299.999892169
 300.000194781
 300.000293515
 300.000217346
 300.000214524
 300.000246046
 300.0001818
 300.00013431
 300.000119148
 300.000118045
 300.000261493
 300.000329648
 300.000196492
 300.000027856
 299.999896256
 299.999843137
 299.999831306
 299.999725142
 299.999663893
 299.999728623
 299.999783111
 299.99972862
 299.999632945
 299.999634999
 299.999729078
 299.99989512
 300.000047502
 300.000060403
 300.000047568
 300.000028958
 299.999878379
 299.999923747
 300.000162449
 300.000340122
 300.000557375
 300.000966965
 300.000987527
 300.000726841
 300.000970298
 300.001144414
 300.000860619
 300.000461953
 300.000160648
 299.999830833
 299.999591013
 299.999356095
 299.999200323
 299.99918044
 299.999002668
 299.999174287
 299.999686618
 299.99995924
 299.999645186
 299.999544877
 300.000051353
 300.000439133
 300.00046616
 300.000338405
 300.000579901
 300.000910155
 300.000925494
 300.000600483
 300.000245218
 300.000153787
 299.999884209
 299.999685665
 299.999834741
 299.999900924
 299.999807859
 299.999968883
 300.000322874
 300.000380329
 300.000177701
 300.000050763
 299.999938148
 299.999855114
 299.999860651
 299.999860614
 299.99979294
 299.999718301
 299.999852352
 299.999983877
 300.000069328
 300.00002592
 299.999855176
 299.999807733
 299.999722857
 299.999654936
 299.999737014
 299.999789625
 299.999714989
 299.999594752
 299.999759795
 300.000137893
 300.000361307
 300.000073356
 299.999707323
 299.999772439
 299.999739919
 299.999515556
 299.999548011
 299.99984705
 300.000052674
 300.000165041
 300.000269703
 300.000306854
 300.000396109
 300.000546737
 300.000589468
 300.000528756
 300.000415396
 300.000241994
 300.00018124
 300.000185131
 300.000113552
 300.000130086
 300.000293097
 300.000269353
 300.000325068
 300.00068063
 300.000594859
 299.999958941
 299.999658056
 300.000026964
 300.000463035
 300.00036218
 300.000208344
 300.000212855
 300.000179137
 300.000352493
 300.000358358
 300.00015441
 300.000083955
 300.000115676
 300.000068172
 299.999959369
 299.999886312
 299.999869551
 299.999790588
 299.999786679
 299.999846213
 299.999838242
 299.999855579
 299.999851074
 299.999748261
 299.999674924
 299.999708755
 299.999713039
 299.9996835
 299.999623508
 299.99976041
 300.000080181
 300.000091367
 299.999940454
 299.999971347
 300.000108321
 300.000139333
 300.000007404
 299.999997965
 300.000105535
 300.000317445
 300.000492441
 300.000356887
 300.000150831
 300.000009333
 300.000021411
 300.000165431
 300.000228474
 300.00024132
 300.000251047
 300.00003938
 299.999382306
 299.998535097
 299.998032524
 299.998058967
 299.998509848
 299.999150637
 299.999691101
 300.000056474
 300.000076483
 300.000096972
 300.000292558
 300.00012137
 299.999804158
 299.999571617
 299.999196981
 299.99890886
 299.998955735
 299.99922296
 299.999322337
 299.999237476
 299.999308181
 299.999401191
 299.999381997
 299.999150898
 299.998698216
 299.99876187
 299.999324211
 299.999740743
 299.999801108
 299.999572183
 299.999359544
 299.999410186
 299.999501256
 299.999370663
 299.999246465
 299.999278428
 299.999369065
 299.999272035
 299.999137562
 299.999102888
 299.999061093
 299.999190512
 299.99926658
 299.999053496
 299.998612565
 299.998244896
 299.998194804
 299.998443611
 299.998562413
 299.998779412
 299.998774587
 299.998210903
 299.997730828
 299.997258819
 299.997095085
 299.997724587
 299.998347968
 299.998401801
 299.998412697
 299.998435389
 299.998491218
 299.998829948
 299.999591748
 300.000258131
 300.000471195
 300.00047323
 300.000611857
 300.000705089
 300.000620654
 300.000349229
 299.999978137
 299.999678756
 299.999444845
 299.99937481
 299.99916668
 299.999133974
 299.999229551
 299.999289051
 299.999357108
 299.999575588
 299.999907476
 299.99978191
 299.999468713
 299.999501746
 299.999815727
 299.999929427
 299.99986536
 299.999855267
 299.999888169
 299.999927076
 299.999983358
 299.999922822
 299.999790677
 299.999768025
 299.999803576
 299.999770079
 299.999605073
 299.999336268
 299.999293888
 299.999616684
 299.999893841
 299.999810533
 299.999767382
 300.000144298
 300.000451239
 300.000409731
 300.000419076
 300.000561121
 300.00055329
 300.000393731
 300.000307786
 300.000227778
 300.000213492
 300.000156293
 300.000032921
 299.999933442
 299.99985198
 299.999907649
 300.000070058
 300.000261306
 300.000311015
 300.000348279
 300.000459493
 300.000522044
 300.000401074
 300.00017122
 299.999993474
 299.999846831
 299.999782596
 299.999783543
 299.999764865
 299.999735916
 299.999626341
 299.999489079
 299.999515021
 299.999694421
 299.9997648
 299.999592098
 299.99944825
 299.999485927
 299.999596733
 299.999705434
 299.999728896
 299.999687558
 299.99983438
 299.999988095
 300.000044871
 300.000181622
 300.000099493
 300.000177078
 300.000384805
 300.000103763
 300.000197128
 300.000112032
 300.000071216
 300.000154256
 300.000178503
 300.000099029
 300.000045587
 300.000067768
 300.000171037
 300.000201273
 300.000006465
 299.999823015
 299.999765725
 299.99972997
 299.999723748
 299.999735977
 299.999722024
 299.999693463
 299.999715235
 299.999690377
 299.999508002
 299.999455195
 299.999643294
 299.999869996
 299.999979273
 300.000040091
 300.000114244
 299.999982304
 299.999829835
 299.999969307
 300.000118191
 300.000039025
 300.000067384
 300.000406467
 300.000661607
 300.000745959
 300.000981566
 300.001166529
 300.001031944
 300.000601639
 300.000092295
 299.999863219
 300.000048518
 299.999766947
 299.999275021
 299.99918271
 299.99897854
 299.998980161
 299.999278234
 299.999749399
 300.000040206
 300.000025071
 300.000059201
 300.000178777
 300.000321934
 300.000438426
 300.000554182
 300.000564124
 300.00066689
 300.000530374
 300.000113097
 300.00008201
 300.000138873
 300.000009441
 300.000036462
 300.000216449
 300.000235967
 300.000372827
 300.000549315
 300.000408806
 300.000136389
 300.000010437
 299.999931258
 299.999952986