# vtk DataFile Version 3.0
array.1
ASCII
DATASET STRUCTURED_POINTS
DIMENSIONS 1 321 161
ORIGIN 1500.01 799.99 0.001
SPACING 0 1.25 1.25
POINT_DATA 51681
 FIELD attributes 1
U 3 51681 float
3.77570850046 	0.234727767348 	8.91475012914e-05
 3.63154814263 	0.246505432 	2.72381725292e-05
 3.50338942523 	0.190539845308 	2.34224043618e-05
 3.25743526849 	0.199663450637 	0.000118940334082
 3.21076169595 	0.0466416767401 	0.00010274191463
 3.71804023029 	-0.16953634732 	-7.70697296917e-05
 4.07466284705 	-0.273982031551 	-6.97485485601e-05
 4.07426190515 	-0.341379204415 	-3.21003175209e-06
 4.20507344511 	-0.368980461521 	-0.000250276962265
 4.42377246195 	-0.271830329541 	-0.000145949439023
 4.12210897571 	0.155530281086 	-0.000317777018662
 3.38171151425 	0.415675129749 	-0.000262526377002
 3.10367401061 	0.0310584682569 	-0.000144821754597
 3.54314391055 	-0.236306974966 	4.9732574081e-05
 3.71560135127 	-0.439159669257 	0.000201049591743
 3.66385533895 	-0.467192355151 	-2.03003877666e-05
 4.46400509902 	-0.064961947958 	-6.09581324201e-06
 4.64364989764 	0.0564660102285 	-2.43770082627e-05
 3.80429655975 	-0.0170683748702 	-3.36493796073e-05
 3.94274596558 	0.117800370759 	-9.70161945517e-05
 4.70960425549 	0.451645593526 	-0.00012147159348
 4.23149979565 	0.665075434679 	-0.000246802522533
 3.17875519159 	0.400806940201 	6.38800782914e-05
 3.12630010282 	0.160363886182 	4.05615102948e-05
 3.47672177676 	0.0576788393266 	-0.000221901695521
 3.38308354386 	0.174393341565 	-0.000349253644709
 3.32034901204 	0.184420568916 	-0.000281266157418
 3.98798122488 	-0.268835712519 	-0.00013482687114
 4.50707839621 	-0.56049565655 	-0.000485144114025
 4.35154763604 	-0.563015567142 	-0.000130570243705
 3.88247294401 	-0.414336862249 	2.91662009287e-05
 3.34770948976 	-0.362671481324 	-0.000305650179795
 3.3630550405 	-0.243207636877 	-0.00065793574285
 3.44378925885 	0.258540470181 	-0.000379692195718
 3.09068850143 	0.889868583561 	-2.92120878251e-05
 2.99548778577 	1.31699012574 	0.000187772616589
 2.89497848627 	1.32775295702 	0.000197939040967
 2.47954023598 	0.874123178649 	0.000408539351018
 2.54004358191 	0.300008030325 	0.000513274538772
 3.24720703156 	-0.221904566283 	0.000438247815443
 3.68620013941 	-0.303679188145 	-0.000133856319956
 3.62502365287 	-0.0298478902329 	-0.000475488246668
 3.18799376731 	0.204802752491 	-0.000255260337584
 2.83853028575 	0.329977962581 	-0.00025742682712
 2.55682726186 	0.63492007537 	-0.000687287584222
 2.28300433351 	0.914613802994 	-0.000489383692504
 2.71952626129 	0.57811667181 	0.00010021495451
 2.66592413596 	0.45640057912 	0.000493108239631
 1.87998692857 	0.371366328053 	0.000411069272994
 2.60413968452 	0.240579718944 	0.000123462268284
 3.13725687038 	0.640698275533 	-0.000577948159269
 2.49057175948 	0.974076203642 	-9.05772899914e-05
 2.67295156394 	0.576329420164 	0.000406392287279
 2.68142258365 	0.311451355862 	0.00031780420554
 2.78574334478 	0.726608996489 	0.000152911455518
 3.55895898472 	0.927770804027 	-5.11384674768e-05
 3.77177086742 	1.15264787549 	-0.00037479283694
 3.92163357128 	1.2551778389 	-9.46140175041e-05
 3.86668099019 	0.771851969055 	0.000272880145548
 2.96698825299 	0.849545318462 	9.53907717699e-05
 2.55742252412 	0.9244585722 	-0.000704939479075
 3.50260392899 	0.357562949614 	0.000186806570909
 4.31686667067 	0.218551287416 	-0.000128671396787
 4.39164631696 	0.039086421699 	-0.00057809034686
 4.24191832751 	-0.140616924192 	-0.000552746789547
 3.93400753416 	0.00783141842776 	-0.000244252853513
 3.91692857303 	0.0767107941766 	-4.99595405095e-05
 3.99377274883 	-0.13192188945 	0.000197227559584
 3.80326724598 	-0.564985386671 	0.000251052455989
 3.59827695681 	-0.786927861997 	0.000492660914796
 4.313423737 	-0.666302737341 	0.000162352669832
 4.2410242666 	-0.101434056846 	-0.000441463040459
 2.57210782899 	0.0506665325083 	0.000330090760339
 2.02973949724 	-0.0128525485222 	0.000141872580371
 3.1688800117 	0.230968397671 	-0.000295846328649
 4.19430847074 	0.350362781659 	-0.000522981650568
 3.96286824209 	0.154333640418 	-0.000635770398043
 3.53824772308 	-0.330106096778 	-0.000119813641458
 3.73613659616 	-0.423477731506 	-0.000192053126999
 3.78333824504 	-0.0335715872337 	-0.000413661453271
 3.36633443448 	0.243141921836 	-0.000329074597515
 3.39985672551 	0.167356522267 	-0.000126485008998
 3.86223738245 	0.255503104714 	-6.96401992781e-05
 3.90186323565 	0.536564427839 	-0.00057416341527
 3.70354751427 	0.490712874218 	-0.000483532785058
 3.67727148391 	0.0843666359357 	0.000306271305173
 3.72293859716 	-0.161337451919 	0.000258006710687
 3.5011767192 	-0.182533346526 	0.000155275890145
 3.38116527198 	-0.272234878096 	-2.900570131e-05
 3.55866657207 	-0.459774201349 	-0.000551615104899
 3.70877000349 	-0.335461930195 	-0.000517770015284
 3.42294266938 	0.0411147687446 	-0.00078157079191
 2.58826698888 	0.197851557947 	-0.000668532374569
 3.10117696354 	0.0598124264326 	-0.00031010015115
 4.08797988811 	0.389727935727 	-0.000197437434147
 3.7584049376 	0.635846718331 	-0.000240860043037
 4.13252660415 	0.0279476973121 	-0.000331590706987
 4.30321795381 	0.0954106533842 	-0.00105022206487
 3.48104771951 	0.578976424778 	-0.000113503690551
 3.22718961638 	0.46686552117 	6.35590520687e-05
 3.14029652932 	0.367784406407 	-0.000201906662102
 2.96149014982 	0.373138283454 	-0.000209501716363
 3.00978531954 	0.340757823681 	-1.93934545002e-05
 3.14976462538 	0.287448836738 	4.03775805729e-05
 3.0487597523 	0.0507864753699 	-2.28402816196e-06
 3.01653832377 	-0.194678190275 	0.00010752962532
 3.38093682355 	-0.226979480185 	9.47877717173e-05
 3.50493841552 	-0.0136741953288 	-0.000150163711152
 3.20439524494 	-0.108883523712 	-0.000170473636498
 3.30839853536 	-0.286476835864 	2.45723507463e-05
 3.45427757807 	-0.23829318783 	-0.00017159365283
 3.15917524228 	-0.296556490406 	-7.47155563922e-05
 2.98330279158 	-0.121674195975 	-0.000119185153897
 3.03162692236 	0.105939839302 	-0.000149454685182
 3.08914368298 	0.185918656406 	-0.000252211575615
 2.94974926414 	0.240143383496 	-0.000188092588545
 2.71182917552 	0.316255000397 	-0.000277307271654
 2.75723311816 	0.187357741916 	-0.000192838777249
 3.08475158488 	-0.0469181907416 	-0.000209557655613
 2.97938848703 	-0.00277873992253 	-0.000356879324263
 2.57462859714 	0.217682864574 	-0.000202900898129
 2.34067553088 	0.517791501866 	0.000221134201554
 2.26276313392 	0.393970176381 	1.07316039166e-05
 2.70557607929 	0.120474338682 	-0.00034216932959
 2.8171314978 	0.306129656564 	-0.000528013136741
 2.45060051746 	0.320525167199 	-1.68486040068e-05
 3.06757784769 	0.0973331686539 	-0.000323297067254
 3.48252102198 	0.198329332032 	-0.000325502283303
 2.86615122601 	0.308411208493 	0.000104013565652
 2.62967165657 	0.144250536986 	0.000213726257777
 2.55685182088 	-0.0571508145188 	-0.000335361024739
 2.51901159891 	-0.247181910506 	-0.000177675841012
 3.27748731954 	-0.026113484812 	-0.000350110318821
 3.98247402959 	0.303788036079 	-0.000768585966328
 3.67252939437 	0.630255700955 	-0.000535155776041
 3.15347516657 	0.833288447088 	-0.000183282672302
 2.99074604549 	0.513362153554 	-2.66905267792e-05
 3.10061290801 	0.284825920734 	-6.08342682828e-05
 3.05359299933 	0.36996528523 	-0.000228995674758
 2.83004739462 	0.493412844018 	-6.2168852062e-05
 2.65540537831 	0.449287880664 	7.36844125311e-07
 2.75763180335 	0.246587550877 	9.38974791886e-05
 2.97240791982 	0.104275840418 	0.000281853489123
 2.9906798309 	0.339801446255 	0.00017072072646
 2.68876960343 	0.577904704805 	0.000293795678528
 2.31156415681 	0.325971312801 	0.000363534121824
 2.56858717109 	0.32851061994 	0.000175369322894
 3.00091511304 	0.481768431391 	-0.000181721060065
 3.45192943422 	0.225555628795 	2.29488602248e-05
 3.54172227975 	0.00435292311758 	7.3681495416e-05
 2.79032126764 	-0.108862203185 	-0.000171583689853
 2.36378493631 	0.101766549921 	3.58317149105e-06
 2.55308672593 	0.431918420722 	-7.57846228326e-05
 2.72662443127 	0.377064967155 	-4.15185290632e-05
 2.92000971463 	0.385341802996 	-6.67388436324e-05
 2.89812451267 	0.431321747653 	-9.07876824907e-05
 3.10510578062 	0.302570035838 	-0.000125728833964
 3.42188173086 	0.0137208106657 	-0.00020902464691
 3.24420941398 	-0.185812451591 	-9.12253192976e-05
 2.87735736083 	-0.192097619155 	-6.31471561009e-05
 2.77896894542 	-0.350999124385 	0.000101094574773
 3.16834454229 	-0.163905035127 	-9.83562639692e-05
 3.73378111468 	0.275185147005 	-0.000271114794418
 3.79368344035 	0.61884716807 	-0.000452719252353
 3.72809663016 	0.995347412962 	-6.41046221809e-05
 3.81732554084 	1.03782817015 	1.29096907916e-05
 3.40266532608 	0.912795146953 	4.4243539912e-05
 3.02370345064 	0.85636616808 	-9.164070771e-05
 2.94679546118 	0.346123865187 	0.000418180921206
 2.80785214344 	-0.219882548241 	0.000405302654059
 2.62604446771 	-0.312750503038 	6.91240903323e-05
 2.31157137027 	-0.464924606437 	0.000131109441131
 2.40758330274 	-0.456133354189 	5.27432607552e-05
 3.32005883665 	-0.00231386142187 	0.000169680067495
 3.34277600445 	0.044702692561 	2.40157620462e-05
 2.37960475395 	-0.510848806769 	5.25129271302e-05
 2.46264762803 	-0.851320521574 	0.000505426395004
 3.70945434159 	-0.346342704384 	0.000482317532348
 4.66187356781 	0.236731472486 	0.000220757348898
 4.77656714466 	0.198198994387 	-0.000542367144248
 4.5795473023 	0.243676396382 	3.23873427414e-05
 4.11538121424 	0.771878635985 	0.000392558066901
 3.18238463563 	1.16582134198 	0.000486460543245
 2.60961530296 	0.904656457495 	0.000277656224859
 3.00048089498 	0.245178346457 	-0.000158104656025
 3.55824360527 	0.173127498534 	-9.67964732387e-05
 3.93373387053 	0.505607419781 	-9.3017269605e-05
 4.13626934783 	0.698643718388 	-0.000409721184379
 3.67406094998 	0.943648746217 	-0.000220423400319
 3.02132373287 	0.696780291869 	0.000322161090269
 3.03380240896 	0.321709729409 	0.000234049709571
 3.88471649023 	0.311034416955 	7.42891648918e-05
 4.02618522393 	0.462864580344 	-0.000746696695274
 2.8072910341 	0.571347828516 	0.000269525952469
 2.32000961601 	0.451142066986 	0.000269878884466
 2.81816018803 	0.298562288595 	-6.982274676e-05
 3.18951125023 	-0.0266816525398 	0.000291837185445
 2.87680792399 	-0.156218112766 	9.96930189039e-05
 2.54056281554 	-0.257147487839 	-2.13856708003e-05
 3.27406087415 	-0.185805849898 	-9.43924596802e-05
 3.8079277483 	0.305915104799 	-0.000538656016554
 3.67186124182 	0.300375200964 	-0.00014768946868
 3.70758188404 	0.313159507947 	-3.50356362596e-05
 3.46795550647 	0.462019946592 	-0.000217628533796
 3.18724467408 	0.133514158826 	0.000257838196488
 3.14690038038 	-0.140218762444 	0.000191005799027
 3.38812982398 	-0.273150594325 	0.000197370093781
 3.41695289835 	-0.399167418042 	9.94580091808e-05
 3.06941781112 	-0.295042188123 	0.00011696747684
 3.02330867664 	-0.204109758768 	-8.83900472253e-05
 3.16872118272 	-0.521707121151 	1.04118550874e-05
 3.34096071473 	-0.853534425389 	-2.71679895978e-05
 3.3875508369 	-0.97251829168 	-0.000317463007654
 3.07469559202 	-0.832749045442 	2.49732732909e-05
 2.53599950619 	-0.244306029515 	-0.000328443098025
 2.35519595352 	0.26466902623 	9.98407141455e-05
 3.01421015525 	0.171568842287 	-8.92141244381e-05
 3.31421573015 	-0.108455336436 	-0.000252371394249
 2.97538107304 	-0.290029780429 	-0.00017784242411
 2.58451240501 	-0.411225822408 	-0.000324510979709
 3.20658808046 	-0.00193996357353 	-0.000149986417049
 4.10237173078 	-0.0339587802805 	-0.000357464924546
 4.14335595372 	-0.0801224932749 	-0.000251946891929
 4.07324127755 	0.410794534111 	-0.000549076488153
 3.81083405323 	0.449973553328 	-0.000136898843303
 3.73991697333 	0.464626921767 	0.000285698670606
 4.02377365318 	0.478192903884 	-0.000344364724853
 4.05128639466 	0.235274728836 	-0.000227174634641
 3.92889729198 	0.0328291017877 	-9.20966697943e-05
 4.4403618135 	-0.105321676128 	-0.000242295715991
 4.2680431031 	0.145613194392 	-0.000491770090535
 2.74400158053 	0.395927500695 	-0.000208243228828
 2.0155597847 	0.456054407876 	0.000139480775595
 2.15918017427 	0.713385204816 	-0.000129615482244
 2.5823747155 	0.74171749384 	0.000318845931261
 3.38004298242 	0.730713420583 	0.000285796057303
 3.74998179384 	0.905235888502 	5.08548783971e-05
 3.77320042795 	0.988482144228 	-0.000155149418661
 3.65465430173 	1.04958727191 	-2.58949293493e-05
 3.65404189501 	1.1217386438 	1.99723609473e-05
 3.72799716918 	1.18489422037 	-0.000110794171604
 3.28005903059 	1.15919399133 	9.47579508052e-05
 2.67529386527 	1.04008240485 	0.000356328446049
 2.34217821777 	0.574632714257 	0.000358953986067
 2.69005523532 	0.447816276285 	0.000208243547798
 3.33146013709 	0.714055561396 	-0.000374417820157
 3.30568381587 	0.702836623737 	-0.00017999545528
 2.9738601828 	0.680939041751 	-7.7800892526e-05
 2.71344197446 	0.529643952439 	-5.72750898216e-05
 2.89876498738 	0.436680454012 	1.71060276357e-05
 3.20682985528 	0.438031543151 	-0.000164997202523
 3.08666169409 	0.588418655161 	-0.000465481383886
 2.7137320244 	0.574613761279 	4.92603621461e-05
 2.48872983678 	0.166845010265 	0.000545301687158
 2.767334223 	-0.110105234602 	0.000194746951759
 3.22008826135 	0.0505372407978 	-0.000113608096298
 3.22737722295 	0.299270919696 	-0.000109022093017
 3.28491397715 	-0.129704414437 	3.07152772718e-05
 3.02327269546 	-0.370048231114 	-4.03728474338e-05
 2.51499531986 	-0.173582157664 	-4.12464715543e-05
 2.75127492054 	0.0159993983164 	7.35269133031e-05
 2.79093439567 	0.267220644456 	-3.76444817088e-05
 2.60945086367 	0.161656709642 	0.000220626534183
 2.98947303083 	-0.235245202735 	0.000467595798092
 3.67484206219 	-0.448006574841 	7.39368540939e-05
 4.11857114415 	-0.0772209651248 	-0.000128118388235
 3.90780637459 	0.121630666942 	-0.000468170300938
 3.65616278444 	0.400539860536 	-0.000419782810945
 3.94728705849 	0.505467326995 	-0.000553794596462
 4.10126622875 	0.27857450186 	-0.000501190929665
 3.58778843917 	0.174904321493 	-0.000263692220071
 2.95552704886 	-0.30038050088 	0.000328927137594
 2.94212719241 	-0.453250994399 	-0.000299098158044
 3.34967733683 	0.0148469804774 	-0.00034326754869
 4.24877057994 	0.429464203332 	-0.000178683244431
 3.70494520564 	0.89599071612 	-0.000532551113242
 2.23801168941 	0.881702710139 	-1.80523913315e-05
 2.25317531692 	0.24268446995 	0.000222056117817
 2.51298422714 	-0.0801939925615 	0.0001335022566
 2.71275492622 	-0.369981271143 	-8.84260558093e-05
 3.29266207558 	-0.429430053027 	-5.89451459658e-05
 4.1490236288 	-0.324106601149 	-0.000585109088106
 4.61052040677 	-0.816457171316 	-0.000439969809767
 4.56766343452 	-0.702988861453 	-0.000429080020828
 4.34670102235 	-0.0140753676939 	6.70041525327e-05
 3.67867886631 	0.487862533303 	-0.000134474873539
 3.3050137261 	0.714396576704 	-0.000149711728595
 3.45934395135 	0.283868858845 	0.000225704615982
 3.77712604191 	-0.249642872748 	0.000225081867045
 4.19584386846 	-0.74209173707 	0.000105549920839
 3.78472224467 	-0.761828822553 	-0.000167133273309
 3.56257724732 	-0.312196057088 	-0.000187392702881
 4.23667060414 	0.232753483229 	8.57396030918e-05
 4.60204574681 	0.831934954456 	-0.00011237594912
 4.73323657369 	1.19886300891 	6.22100512418e-06
 4.21505367033 	0.952998528637 	0.000168347031058
 3.1622394156 	0.37694768795 	0.000326338785489
 2.62515341855 	-0.101863482717 	0.000527064604895
 2.83869841749 	-0.56620432043 	0.000201545479549
 3.71698042152 	-0.624657679968 	-0.000196010750997
 4.50158810263 	-0.699706366066 	-6.563006718e-05
 4.92988306305 	-0.60550663898 	-0.000483431074349
 4.62820658924 	0.0462891966007 	-0.000797059484284
 3.59802059124 	0.41858881527 	-0.000392960907244
 2.9109922009 	0.546314653915 	-5.58561753727e-05
 2.97432606368 	0.470010116665 	0.000110774729783
 3.44599738075 	0.387052213855 	-1.0049619175e-05
 3.69961533716 	0.546127633379 	-0.000179904666907
 3.61587766898 	0.681859043564 	-0.00023465614642
 3.4360595331 	0.622017981174 	-7.39680777397e-05
 3.27854859132 	0.407711793733 	0.000149871299324
 3.59293707971 	0.28513132683 	0.000183271525822
 4.04473345868 	0.331369427925 	0.000100677635065
 3.99776481654 	0.0955893387257 	-7.45437230939e-05
 3.74897450001 	-0.407903601326 	4.75888328279e-05
 3.56750757293 	-0.753043254894 	-1.65889795675e-06
 3.87461987004 	-0.72868381733 	0.000111001718312
 4.19706511543 	-0.47145665712 	-0.000464162594935
 4.2304797942 	-0.431841467929 	-0.000574551289172
 4.18162505257 	-0.241916265627 	-0.00063117654704
 3.88871418877 	-0.326906244929 	-0.000301717920932
 4.56820724513 	0.253360777784 	0.0534605609778
 4.56192368385 	0.3203424732 	0.0467090819499
 4.61250622787 	0.265615509641 	0.0700711909339
 4.6681127548 	0.19848166524 	0.0968761952181
 4.59327794159 	0.135276531855 	0.0993573462384
 4.85852876703 	-0.00461740084306 	0.0931192384103
 5.32171765187 	-0.106209187315 	0.0749239066808
 5.46270472117 	-0.132821108677 	0.00455699304214
 5.34073005493 	-0.100684855826 	-0.0932093151341
 5.2630274717 	0.11745022996 	-0.173258052899
 5.41605761998 	0.299950688646 	-0.191449678716
 5.13316150987 	0.352280969094 	-0.0672777266582
 4.46403873691 	0.302482744397 	0.0750762880276
 4.42911970861 	0.139931341318 	0.14346640538
 4.85863127028 	0.0714961004614 	0.147089400898
 5.19706953523 	0.176411348419 	0.107915114419
 5.57042838995 	0.332292371436 	0.0318239361649
 5.77376099822 	0.3169974161 	-0.0119583086563
 5.69590377748 	0.217093552043 	-0.0185050735044
 5.6521171828 	0.26408043192 	-0.0332632893502
 5.53577282204 	0.323543356227 	0.00669234344445
 4.98339530827 	0.318029887578 	0.0939794034191
 4.57716155249 	0.3512570777 	0.141786871515
 4.85407557714 	0.339917339836 	0.0327550854919
 5.36938961328 	0.24648772156 	-0.169270352846
 5.70713929212 	0.348907163914 	-0.235614366036
 5.55761767305 	0.581349453472 	-0.0798109169495
 5.25070190969 	0.57151383648 	-0.0240152027462
 5.09496816945 	0.407375199559 	-0.0781919186085
 5.05380653397 	0.333797719028 	-0.125261205081
 5.13976821126 	0.314583070801 	-0.228444156155
 5.33441620889 	0.433230428886 	-0.302301132246
 5.60859877446 	0.639463693863 	-0.271188290168
 5.6749869898 	0.679410223373 	-0.179642938008
 5.381382101 	0.752004921596 	-0.0753997501768
 5.08086955686 	0.96652827349 	0.0378467310252
 4.79628639031 	1.02345486502 	0.13271050602
 4.30443935248 	0.922678846171 	0.269896001039
 3.74996310042 	0.726897221591 	0.35363310626
 3.59563467027 	0.60304668745 	0.225242135072
 3.82897880327 	0.636208817584 	0.000335388923243
 4.24299927541 	0.664359292322 	-0.123441377576
 4.39825633381 	0.738871513962 	-0.174309007763
 3.94554804666 	0.699980077983 	-0.198789122542
 3.63368750418 	0.338891222197 	-0.0944333972167
 3.75303748434 	0.162750648978 	0.179285949523
 4.24712276538 	0.178779100288 	0.384520599226
 4.62293299539 	0.219859609112 	0.370731016025
 4.50047696284 	0.280445394954 	0.241473008845
 4.83531053261 	0.291888260896 	0.00192122427761
 5.10827837359 	0.414837092697 	-0.108137193002
 4.37359126993 	0.544188557382 	0.0921165462142
 4.28736593049 	0.583876972825 	0.230336009444
 4.87437864045 	0.734202799881 	0.146340669115
 5.38496582883 	0.963462784846 	0.0177965615531
 5.7289294882 	1.16032396917 	-0.0209743909233
 5.0596615129 	1.20951219124 	0.114696681528
 4.25070700267 	0.842725962917 	0.242317801475
 3.90656733546 	0.52066832971 	0.119446503625
 3.51070061641 	0.670488028174 	-0.0431324491999
 3.24679764785 	0.678596115475 	0.113918995059
 3.7994020583 	0.473837674817 	0.187192889063
 4.52439707399 	0.480744790711 	-0.0263525549084
 4.78779021929 	0.524755861524 	-0.223366561008
 4.91371635477 	0.491928406946 	-0.291457661742
 4.81067398404 	0.532493636455 	-0.182954343252
 4.5438191345 	0.642306735815 	0.00131118476555
 4.42992597519 	0.573338303198 	0.0869996502447
 4.46470581111 	0.421689760635 	0.0533926527047
 4.50618202823 	0.313550800598 	0.0129299070857
 4.70274675582 	0.363791550121 	-0.125537047497
 4.65500363505 	0.45348308616 	-0.111632593933
 4.45059208688 	0.499078549657 	-0.0344406524972
 4.26289113722 	0.624760535763 	-0.0766797189827
 4.14796816999 	0.812302230996 	-0.113185110797
 4.4834150014 	0.961135050198 	-0.128307490413
 4.62431602526 	0.894307183704 	0.00356973348905
 4.50223695702 	0.692209011691 	0.0464279284773
 4.65760879612 	0.528460178135 	-0.0688699227808
 4.63219025549 	0.295081713461 	-0.0939298705697
 4.43869528826 	0.114055496209 	-0.0393216230183
 4.92806524223 	0.204144188426 	-0.119241634653
 5.4201047619 	0.186688510747 	-0.191070480753
 4.91023909277 	0.182713610105 	-0.155159709481
 3.94889752518 	0.288292378733 	0.00171105778717
 3.70110957618 	0.291493534388 	0.162895730158
 4.06077957237 	0.243154420625 	0.149430308026
 4.24685608068 	0.225211734601 	0.0804522758533
 4.31824694407 	0.151303660339 	-0.039261209306
 4.56209551513 	-0.0413540275504 	-0.197585513592
 4.78665187446 	0.0165173975457 	-0.2902503214
 4.52111582236 	0.135465021858 	-0.235549799151
 4.08888978651 	0.284841904831 	-0.137422029435
 4.16913353153 	0.401298328377 	-0.119537258062
 4.58570753562 	0.453281255153 	-0.103341343693
 4.66552730804 	0.471022549164 	0.0142487926038
 4.92041481458 	0.1333043927 	-0.10840637699
 5.11111266644 	-0.00150894459206 	-0.275540224576
 4.76199774079 	0.29606986233 	-0.124953487351
 4.42248717691 	0.437413163996 	-0.00343074586217
 4.33040037339 	0.318337403363 	0.0429138204553
 4.42246859788 	0.0966607528802 	0.0703198830765
 4.4971674193 	-0.0394695914017 	0.0270216336783
 4.59672919548 	-0.0779843067147 	0.0103795191738
 4.59110466118 	-0.135997229936 	0.0422724288316
 4.60169404101 	-0.167545684313 	0.0484481343426
 4.85430353395 	-0.140187082493 	-0.022861855509
 5.04550057237 	-0.0298993040486 	-0.0878985362322
 4.93905684073 	0.0686540231415 	-0.0407941180221
 5.00600100175 	0.12996752243 	-0.026554326189
 5.24534376278 	0.0826271691211 	-0.0226270567103
 5.19395082227 	-0.0593644300515 	-0.0107353961572
 4.98504993514 	0.0620109816044 	-0.0282901759413
 4.93379729494 	0.218747770838 	-0.020426175314
 5.05389027416 	0.234962028752 	-0.00303616353564
 5.37094313854 	0.238717012773 	-0.0160646770338
 5.24292933107 	0.277695838513 	-0.0231424127976
 4.89458705994 	0.343258908373 	-0.0144553596403
 4.9356724807 	0.372288808765 	-0.0672292797654
 4.60398492306 	0.325976499842 	-0.14063077728
 3.9933533582 	0.175140536791 	-0.119595197494
 3.68216285956 	0.077242816763 	0.0441800512321
 4.08425895821 	-0.0258812767776 	0.102260912843
 4.80101524392 	-0.30831472363 	-0.0931146181568
 4.81288936764 	-0.297255622982 	-0.147654243812
 4.60916171477 	-0.0453753620188 	-0.1024454961
 4.9208869093 	0.0525498822398 	-0.174553545553
 4.94883440634 	0.233884848867 	-0.10383651127
 4.67097079852 	0.414215704694 	0.0521267877292
 4.54731237068 	0.507563747352 	0.0726461398794
 4.23940332062 	0.48880416934 	0.0346648070207
 4.10377922801 	0.607247373379 	-0.0302087646332
 4.41403181032 	0.66979381469 	-0.148723172845
 4.73992082785 	0.464673595652 	-0.259987242487
 4.60205962798 	0.41285386469 	-0.212505321797
 4.11581065656 	0.422592076224 	-0.0320316730112
 3.89189815987 	0.370245614873 	0.0645441167452
 4.21743409865 	0.343230220009 	0.0501443532761
 4.59410546793 	0.311125514444 	-0.00490591434937
 4.69039538732 	0.428390296329 	-0.021984862822
 4.67113418317 	0.584051994679 	-0.0445304328176
 4.51982463382 	0.60206396688 	-0.0276723400096
 4.39754020123 	0.514460206972 	0.0307835944083
 4.34385142262 	0.41980456557 	0.0738025591522
 3.96884368738 	0.440445606443 	0.177094441342
 3.5363327767 	0.321759953367 	0.198741743316
 3.79707816565 	0.306750660619 	0.0646329919513
 3.9944521909 	0.460141950015 	0.0530064304707
 3.86497469021 	0.463227585364 	0.126156635247
 3.96452250348 	0.351850413423 	0.125448854302
 4.02027367301 	0.276202037353 	0.107275168543
 4.2000573804 	0.408417595712 	0.0397233884833
 4.22465915297 	0.555857833455 	0.0153035739492
 4.17298096898 	0.655897598623 	8.32314731541e-05
 4.27170248933 	0.742590861788 	-0.0544839642535
 4.15371477449 	0.634226424301 	-0.0240361300054
 4.13014484861 	0.561492443378 	0.0553862641715
 4.18562515209 	0.503513347235 	0.0997625530475
 4.12654102823 	0.340889581072 	0.0362915300734
 4.08712472533 	0.276785270101 	-0.0320117664035
 4.35176396086 	0.261298848753 	-0.102078172474
 4.72477775291 	0.308579714198 	-0.189274297775
 4.89679067566 	0.355792363292 	-0.228392019123
 4.81631647306 	0.457401286094 	-0.209859489332
 4.73392434143 	0.677277670035 	-0.103547265177
 4.77140598058 	0.781507419351 	0.0110907274987
 4.40797075089 	0.719575514149 	0.0837112528407
 3.70341763973 	0.544325714952 	0.264741763404
 3.21609645398 	0.148991370435 	0.395139904306
 3.24939857576 	-0.0850446388463 	0.268308221902
 3.50955507584 	-0.210048897284 	0.178681932211
 3.78900294454 	-0.401695963379 	0.154125658676
 4.10942915343 	-0.337669561954 	0.123044444067
 4.2707693985 	-0.290590214614 	0.152739211224
 4.23799499796 	-0.482189159011 	0.194209371323
 4.26008063668 	-0.789416754341 	0.200792786268
 4.65148128752 	-0.653718151004 	0.0807811087201
 5.15945822689 	-0.16655561123 	-0.130559161689
 5.40423780957 	-0.0337006454329 	-0.24223060217
 5.3761235584 	-0.0501942151419 	-0.158623207243
 5.29229299506 	0.117021475219 	-0.0491306035227
 5.24529106665 	0.493971040193 	0.0332028758352
 4.6656401023 	0.869448181091 	0.207855606545
 3.97242829939 	0.943889744545 	0.288461266883
 3.97904989816 	0.725329996784 	0.155581723093
 4.30753553583 	0.48568036469 	-0.00650801124015
 4.41318576142 	0.428023964111 	-0.0771625636976
 4.38619582107 	0.388990331732 	-0.0954734281976
 4.30053080911 	0.402750476532 	-0.0127381606241
 3.95824607101 	0.357226747072 	0.133505564869
 3.94539535795 	0.245401300645 	0.139424574835
 4.42001298019 	0.23389053472 	-0.0320965246534
 4.36124648995 	0.200951857542 	-0.0705565936977
 3.78986017595 	0.211910801155 	0.0481756485371
 3.7074457739 	0.324717354822 	0.0677782365163
 3.79548353794 	0.386555452416 	0.123323814217
 3.9953600736 	0.265875443699 	0.151145597432
 4.24291331962 	0.245407487496 	0.11202233683
 4.11777151201 	0.196145989175 	0.0567812655156
 4.30610627456 	0.187040151063 	-0.116024621284
 4.71810274831 	0.588265392525 	-0.129371355188
 4.77528377364 	0.723422520173 	-0.0501231135783
 4.68209429171 	0.619106018513 	-0.0891951443275
 4.26319019535 	0.58226061151 	0.0484887179193
 3.74061502034 	0.27724462023 	0.177655683069
 3.55068246626 	-0.0763686425267 	0.184186192563
 3.60927281933 	-0.269064719316 	0.137181344418
 3.74221416176 	-0.306728248152 	0.0611358122458
 3.92342018024 	-0.124713814047 	0.043930203662
 3.8010005688 	-0.115890898848 	0.0820865452302
 3.5005242584 	-0.354180957131 	0.141940004774
 3.57697384348 	-0.46634940872 	0.0673495828768
 3.79187953436 	-0.516250536198 	-0.0261781650217
 4.25278357904 	-0.337918799612 	-0.123771966901
 4.34627867515 	-0.0606013462736 	-0.145065542916
 3.91381140749 	0.054515983488 	0.000308711145876
 3.80753356869 	0.0731826879019 	0.0206999338641
 3.89762486561 	0.105863520807 	-0.0815491274384
 3.86637656104 	0.220394924805 	-0.167024414234
 3.63175536964 	0.262361633951 	-0.164986499169
 3.89219591967 	0.49002386622 	-0.219760007735
 4.39455887088 	0.674378457074 	-0.283795822671
 4.49055715072 	0.718466793956 	-0.302433349833
 4.42261500867 	0.833851290072 	-0.253413315019
 4.31620268025 	0.76305125627 	-0.103128712291
 4.30305593276 	0.833539884467 	-0.0992632117154
 4.5909595769 	0.626998988956 	-0.126636984965
 4.95373653083 	0.529878132178 	-0.0778926877879
 4.66765491309 	0.494107839534 	0.0483516901535
 4.59667764115 	0.127473364338 	0.032289054607
 4.71488302591 	-0.117638585475 	-0.0155607535977
 4.30247655868 	-0.0555663769062 	0.0416593993229
 4.24743950785 	0.123267955424 	-0.00741144194717
 4.45646379299 	0.0870320852742 	-0.0119113657378
 4.71231792894 	0.191985371119 	0.00472458585528
 5.08783028701 	0.297811537714 	-0.0541539763666
 5.17797226109 	0.391716018186 	-0.0625640103104
 5.15157071462 	0.399463109115 	-0.029165088075
 5.11377559455 	0.419722700832 	-0.0438858810559
 5.15514805141 	0.51956818654 	-0.112128193872
 4.9872141951 	0.606717585627 	-0.109728224972
 4.50009033038 	0.624970732564 	-0.00348345941966
 4.24009844508 	0.629283841702 	0.0878406559301
 4.32784108505 	0.650733829889 	0.091830286974
 4.66920346403 	0.792728832613 	-0.034493902525
 4.89383196529 	0.866952016002 	-0.095426149363
 4.71971792452 	0.754863908452 	0.0500998972963
 4.22720718492 	0.679058746202 	0.184619819752
 3.71630392687 	0.593067871332 	0.207705880029
 3.92619669923 	0.641739931787 	0.14391026731
 4.43622886714 	0.687360882893 	0.0155965980176
 4.36611353875 	0.593218818378 	-0.00012697088137
 4.04343461704 	0.454574387303 	0.124502667545
 3.83652222804 	0.29658486153 	0.163930957143
 3.62939182685 	0.226228475048 	0.120168116383
 3.64392453327 	0.313495088346 	0.0657448579279
 3.7671712957 	0.520437230963 	0.069608632918
 3.79282658332 	0.414528659178 	0.0916147126273
 3.9205230837 	0.312013442607 	0.026348961995
 3.95323433667 	0.434290424182 	0.0352032968215
 3.85295220486 	0.449485449205 	0.0721980587299
 3.84802117954 	0.414029476855 	0.060585086432
 3.8127228946 	0.324430553441 	0.108523564667
 3.79709954371 	0.18158753374 	0.127724071495
 3.98111415068 	0.165304128986 	0.0229667463016
 4.41984046356 	0.344204658084 	-0.145852053347
 4.75151413245 	0.378467026775 	-0.198848945323
 4.6441037121 	0.23912594656 	-0.148892088352
 4.47184599347 	-0.0109686464879 	-0.132084872422
 4.40430126132 	-0.286924086648 	-0.0917584084427
 3.99430619538 	-0.296369828263 	0.095904472109
 3.68272504833 	-0.414700149143 	0.170074212878
 4.21473333163 	-0.343379375996 	0.0299820822764
 4.66372254118 	0.0623290510534 	-0.0234333696799
 4.66655505647 	0.0216036955654 	-0.0451116184399
 4.44615733268 	0.0782690098959 	0.022363225733
 4.2801452787 	0.168632995919 	0.133301580997
 4.31913233365 	0.0304314704283 	0.107028946708
 4.37106515351 	-0.030960083896 	0.0549377571337
 4.46379483243 	-0.160563703158 	-0.000679919799641
 4.65379228438 	-0.0739148412463 	-0.164848932787