# vtk DataFile Version 3.0
array.1
ASCII
DATASET STRUCTURED_POINTS
DIMENSIONS 1 321 161
ORIGIN 1500.01 799.99 0.001
SPACING 0 1.25 1.25
POINT_DATA 51681
 FIELD attributes 1
U 3 51681 float
3.67503365837 	0.246575991027 	6.1563288464e-05
 3.57446903444 	0.23382549132 	-5.3386704091e-05
 3.4464032025 	0.0882811565151 	-1.23758420271e-05
 3.26683074916 	-0.0498647261936 	0.000118930680141
 3.33451389616 	-0.26139600068 	0.000113359390628
 3.78989440829 	-0.438949659155 	-9.46578116303e-05
 4.13021182709 	-0.491589424535 	-4.99279253976e-05
 4.1800893079 	-0.433525363958 	0.00014448545375
 4.25129391396 	-0.227475200744 	-2.17818466232e-05
 4.33409599802 	0.0683893366252 	-0.000140832974242
 3.90414471908 	0.480309366958 	-0.000283185855291
 3.43064487032 	0.676066356628 	-0.00021615328336
 3.35176790079 	0.390684159701 	-0.000166130079617
 3.5562949491 	0.153777149859 	8.3557001999e-05
 3.61241409571 	-0.137415311239 	0.000162201555078
 3.33544504849 	-0.468774095026 	-6.21416635089e-05
 3.93075165078 	-0.32498424702 	-6.56286779684e-05
 4.34880919211 	0.0774034142005 	0.000193720794896
 3.73587860001 	0.205443972916 	-4.82129629711e-05
 3.78451833608 	0.0804894457101 	-0.000168750722881
 4.33951355232 	0.305143023072 	-0.000207358621999
 3.92924292938 	0.53445320707 	-0.000146163452285
 3.19992464823 	0.113888185381 	8.57689453774e-05
 3.30469959636 	-0.258272015689 	3.18422593862e-05
 3.64824973317 	-0.259321678756 	-0.000181552487409
 3.59953193405 	-0.0383729554367 	-0.000461002883773
 3.73879545625 	-0.0271893068145 	-0.000430608304326
 4.50875164485 	-0.0933686363296 	3.25648422487e-06
 4.84500951897 	0.104880474946 	-0.000294929995932
 4.53401578203 	0.195175095864 	6.05460704276e-05
 4.24134611625 	0.169081722475 	0.000277546139939
 4.00576962464 	0.110248920357 	-0.000411151883143
 3.51456272641 	0.00314470883845 	-0.000554832595642
 2.8253057588 	0.329895034471 	-9.41593387684e-05
 2.52067407651 	0.772684532992 	0.000204051886859
 2.6421129662 	0.909145604741 	0.000280160338978
 2.5981016389 	0.864099763002 	3.78944819583e-05
 2.34714651444 	0.390349370382 	7.52045610598e-05
 2.52429080343 	-0.137290514949 	0.000327858896699
 3.18351506594 	-0.479723509233 	0.000341487453699
 3.51882404833 	-0.438388950347 	-8.1450592713e-05
 3.36154958035 	-0.0190540508461 	-0.000367359722371
 3.14894831957 	0.339478312129 	-0.000123568390434
 2.94109693591 	0.501446528333 	-0.000382887035585
 2.45505355547 	0.91077467885 	-0.000554502800466
 2.0955971283 	1.28122011505 	-0.000391076512449
 2.33864698538 	1.02780811986 	3.13241985017e-05
 2.26628691616 	0.897498717135 	0.000267243653293
 1.83048489462 	0.691934253736 	0.000280764237107
 2.59392463342 	0.513796791491 	0.000125040353448
 3.01105491705 	0.717083595431 	-0.000215323081212
 2.31589145018 	0.638686041346 	5.71629452113e-05
 2.55533194223 	0.367867482459 	0.000432501327542
 2.38107920864 	0.333876498224 	8.55775481413e-05
 2.36363845625 	0.419559582702 	-5.24735407276e-05
 3.21910196266 	0.562639907802 	-3.55593511017e-05
 3.40794422387 	0.937254555597 	-0.000174973938913
 3.85463185639 	1.06165278279 	1.73986879754e-05
 3.8463117787 	0.720136765237 	0.000169316696525
 2.8626452666 	0.887452748232 	9.1612507058e-06
 2.67313173349 	0.880603470091 	-0.00063000965829
 3.6836628544 	0.249112368044 	0.000171256175129
 4.64746735676 	0.139822913982 	0.00017061692969
 4.95775287782 	0.0221943968056 	-0.000288655313523
 4.65563861766 	0.13349356978 	-0.000152010717331
 4.06878461516 	0.343142837453 	-0.000186450825429
 3.98856704965 	0.194674520541 	1.4471311995e-05
 4.23690694731 	-0.160756039097 	0.000293406976434
 4.00343196503 	-0.471219720315 	0.00026442880369
 3.48977968398 	-0.522913075439 	0.000407815567916
 3.93403426867 	-0.476493138038 	0.000212544185653
 3.78266011834 	0.0759887070241 	-4.91273464846e-05
 2.46632412629 	0.199240790608 	0.000367318772844
 2.27367696157 	-0.0849960277493 	0.000156384582339
 3.46870056868 	-0.135503668134 	-0.000162827403347
 4.57265969003 	0.153167548068 	-0.000322999948491
 4.38478564655 	0.175442984789 	-0.00108091404608
 3.74636471335 	-0.249265476679 	-0.000553537814336
 3.63415186779 	-0.118172860057 	-0.000183900826028
 3.66004423641 	0.34765909132 	-0.000198887833258
 3.48658277128 	0.526890537977 	-0.000255329344919
 3.51662812066 	0.291471105674 	-5.1955468831e-05
 3.87865963233 	0.361535687025 	-0.000332625142102
 4.02216097974 	0.784248617141 	-0.000632551957996
 3.79080103166 	0.736851298432 	-0.000164257275213
 3.64329329866 	0.196403086665 	0.00048435811037
 3.63181975351 	-0.131708525999 	0.00022267995993
 3.45544189067 	-0.260982669236 	0.000149790946539
 3.6780670364 	-0.323048666902 	-0.000149790051806
 3.97114970273 	-0.285681010121 	-0.00086514501144
 3.90367089753 	-0.143957601858 	-0.000124859797502
 3.60784474584 	0.335957825172 	-0.000108245753819
 2.89240029005 	0.559843933932 	-0.000516656571887
 3.14945718279 	0.0414106051638 	-0.000272487228497
 3.91662156424 	0.263229419093 	-1.95789347587e-05
 4.05122966999 	0.45898409944 	-0.000206135841427
 4.57463041541 	0.151693215544 	-0.000865215014188
 4.29096332744 	0.608853490107 	-0.000344935932419
 3.50536550917 	0.818926499798 	0.000249434597366
 3.49347711493 	0.423449569747 	1.71584819613e-05
 3.30846541657 	0.178066026719 	-0.000198821472143
 2.97430866913 	0.147949636345 	-0.000203260713786
 2.96599480742 	0.124259983446 	-7.10586804768e-05
 3.24281619354 	0.178839959161 	-6.6703279016e-05
 3.24330382483 	0.0230251849486 	-0.000177670451496
 3.08195438783 	-0.296279466622 	3.95770856053e-05
 3.24883393049 	-0.363002092883 	0.000140635536999
 3.49814063626 	-0.0834931470319 	-0.000147101104939
 3.39542727346 	-0.120894011801 	-0.000290086880994
 3.3446566563 	-0.348997909246 	-6.70824158288e-05
 3.45614663119 	-0.311026846394 	-0.00021384489122
 3.12613210385 	-0.306822757401 	-0.000278829977307
 2.75937340445 	-0.186121512955 	-1.04490561204e-05
 2.8733461681 	0.0272147283332 	0.000137562966469
 3.07037941663 	0.15652379073 	-0.000174259949872
 3.03634356557 	0.146649246695 	-0.000117839637686
 2.91027375615 	0.115658562784 	-0.000228956404837
 3.07880017734 	0.0296358398992 	-9.18859305829e-05
 3.45141154798 	-0.127980954958 	-0.000423102650992
 3.11579372605 	0.0119155949749 	-0.000575899359437
 2.47251620187 	0.22324108947 	-0.000132084261346
 2.28778218912 	0.342490504351 	0.00035247171344
 2.49791779916 	0.324874709154 	8.54145995784e-05
 2.9335710801 	0.180590823066 	-0.000566197240391
 2.90442191576 	0.389860742146 	-0.000694257238888
 2.7343362909 	0.410109126165 	5.68326581042e-05
 3.39077507666 	0.339972743393 	-0.00052183009349
 3.58855466937 	0.47197694842 	-0.00026585674246
 2.93746988675 	0.179086197283 	0.000164525015428
 2.84395511054 	-0.178088526107 	0.000232855594384
 2.79134814838 	-0.244850133869 	-0.000331407468674
 2.67516253503 	-0.39679416712 	-2.83544971152e-05
 3.42059093858 	-0.27306493136 	-0.000148009950899
 4.00641935214 	0.289931983329 	-0.000639937890343
 3.60741807745 	0.730307234581 	-0.000127928922629
 3.25764040517 	0.829375700282 	9.16545588735e-05
 3.24157114587 	0.558081238907 	0.000151282170733
 3.22304582405 	0.4057091134 	-2.92433157959e-05
 2.93612115137 	0.461804468671 	-0.000280849745609
 2.76912553354 	0.589507867785 	-0.000136775444636
 2.81175545222 	0.585390649788 	-0.000227663102512
 2.91170898591 	0.284472936576 	-5.29414866394e-05
 2.85847999134 	0.206324505528 	0.000184764919185
 2.61502406454 	0.300556713834 	0.000110917051189
 2.3107567673 	0.353780114981 	0.000248062066154
 2.04533142197 	0.186420439432 	0.000204103291168
 2.4493449998 	0.227457586429 	8.81846558635e-05
 3.04224575729 	0.357689563385 	-0.000233766635375
 3.50622059881 	0.175987478701 	-4.36175958877e-05
 3.51870695713 	0.0807067655091 	-0.000113586174935
 2.62933271817 	0.0104143034522 	-0.000349114635693
 2.08578187811 	0.0397276105141 	-3.84384966165e-05
 2.43387307774 	0.175058108869 	-5.83979385618e-06
 2.77652562551 	0.128704746881 	-4.49946241685e-05
 2.93823763734 	0.202628188398 	-0.000132050675815
 2.93972386233 	0.212261092315 	-0.000131388420227
 3.28044218757 	0.0717745284943 	-0.000208473475428
 3.58460772761 	-0.0531962201178 	-0.000338727272431
 3.28216178301 	-0.124949504122 	-0.000141976767257
 2.94804553123 	-0.0558414738714 	-7.27898700879e-05
 2.85984740342 	-0.231196099977 	3.04382367734e-05
 3.10150699042 	-0.216055539167 	-0.000123432293157
 3.59736658445 	0.150834268681 	-0.000134341065232
 3.538337306 	0.55229659331 	-0.00026107752209
 3.54835706782 	0.92901105938 	0.00018737812188
 3.83805290752 	1.06357056065 	-5.06490140306e-05
 3.33720867598 	0.992706213525 	-3.05883626834e-05
 2.92800955012 	0.975205521763 	7.37311830871e-05
 2.8969413184 	0.500325369328 	0.000433226965187
 2.76087088297 	-0.157275725904 	0.000359728428911
 2.60231634116 	-0.32330834576 	-3.18272037407e-05
 2.25056395314 	-0.394719784404 	-3.82661998236e-05
 1.99025386231 	-0.459707326979 	-0.000122296200524
 2.76674053082 	-0.0860473615707 	6.66850139067e-05
 3.30459779758 	0.270641671592 	-1.88842082705e-05
 2.55256369651 	-0.0727728522481 	-9.23705605834e-05
 2.04999631037 	-0.516762309877 	0.000139901887467
 2.92248800901 	-0.420120261513 	0.000180234694458
 4.54188070652 	0.0412950944519 	0.000483920020641
 4.86590938356 	0.266609602695 	-0.000244967472916
 3.89266889493 	0.425531742812 	0.000210578956707
 3.08153496694 	0.816077341526 	0.000396422532709
 2.4920786169 	0.725391611143 	0.000225845197206
 2.60354919178 	0.496522716629 	-4.54743379632e-05
 3.16408116424 	0.229796035843 	-0.000538204665095
 3.50260588418 	0.256641027926 	-0.000217818755069
 3.86791597435 	0.504215282347 	-4.5004980132e-05
 3.98808311688 	0.661250291115 	-0.000233808339268
 3.53702229432 	0.82138338775 	-8.92369599778e-05
 3.03750636772 	0.376758627473 	0.000289029482797
 2.98676465491 	0.0420931189056 	0.00012943635549
 3.9465958264 	0.159651407133 	-9.39338110207e-06
 3.9285562731 	0.571223809753 	-0.000739880429721
 2.56555666683 	0.719640991311 	0.000568433143436
 2.42828684637 	0.42638888857 	0.000271017348975
 2.96893436506 	0.236236694978 	-7.4336221603e-05
 3.16373494633 	-0.00525137650789 	0.000303882380842
 2.81271455439 	-0.0314648391395 	-1.76078727266e-05
 2.58648538229 	-0.255061884213 	1.31094673968e-05
 3.21802028651 	-0.378406034723 	-7.99476118403e-05
 3.76857819413 	0.187432250928 	-0.00016154940122
 3.80683759977 	0.368273387768 	-0.000582610413038
 3.69990078265 	0.324135130513 	-0.000358792258302
 3.39355159673 	0.363197318046 	-5.82841860768e-05
 3.25631416308 	0.0897782239006 	0.000331521002465
 3.05209070192 	-0.0608134721793 	5.13329784855e-05
 3.14780051112 	0.0398997732757 	-4.82989432228e-05
 3.27041022212 	-0.0877585714399 	3.7908985678e-05
 2.90770383206 	-0.271931195954 	0.000203574837651
 2.98748241102 	-0.16450291591 	-7.74145982395e-05
 3.25403837917 	-0.295016387371 	-0.000133480697021
 3.43720714175 	-0.74737469232 	0.000142618862528
 3.51758550972 	-0.925156971242 	-0.000497762731656
 3.04899378077 	-0.762096578811 	-0.0002657481225
 2.25804715928 	-0.335310889075 	-0.00029848693592
 2.21106749237 	-0.074717570763 	-4.0854388241e-05
 3.24322908862 	-0.0687184092475 	-0.000162595014887
 3.63745551963 	-0.178554789466 	-0.00014269691459
 3.27496001256 	-0.394875394544 	-7.7963648136e-05
 2.73617355126 	-0.323774489392 	-0.000422939549359
 3.3409746422 	-0.10990404159 	-6.82498935575e-05
 4.35729294105 	-0.341979037078 	0.000413186498716
 4.22943121139 	-0.231952255071 	9.78619354433e-05
 4.11333503144 	0.338568082474 	-0.000321594372381
 3.97253468973 	0.39782699806 	-0.000223924697247
 4.0461261545 	0.296530913978 	-4.39468955973e-06
 4.53032507331 	0.287895664603 	-0.000446328793058
 4.37465075246 	0.228140911066 	-0.000379127601246
 4.00969496638 	0.284687252274 	-2.15589338245e-05
 4.4896150989 	0.181843422304 	0.000101602723119
 4.11767763181 	0.551589400406 	-0.000259698878736
 2.61729597214 	0.731094690062 	4.14309463912e-05
 1.92725738819 	0.517492997218 	0.000176084045843
 2.04309662069 	0.743456264761 	-0.000331937490345
 2.60264217653 	0.739011656873 	0.000246110414118
 3.44669312315 	0.701187931625 	0.00033976148697
 3.77858881481 	0.740880037841 	0.000213104361047
 3.72259169365 	0.782550653963 	0.000184279640467
 3.57783780004 	0.847181151342 	8.12797744904e-05
 3.60123655135 	0.94827496705 	-2.80209466319e-05
 3.72044475923 	1.06248108274 	-6.07205064971e-05
 3.23305616868 	0.998350930592 	0.00013860286773
 2.73977495799 	0.70278660501 	0.000312206104703
 2.51094886956 	0.0726404599957 	0.000424086104527
 2.70192491426 	-0.171111876693 	0.000290906614691
 3.2553745704 	0.258119234864 	-0.000155609596619
 3.14862499439 	0.437086055303 	-0.000470479635407
 2.77007562944 	0.308236100663 	-0.000397166267158
 2.5433249917 	0.139950246789 	-0.000328587169293
 2.7752193588 	0.216349049068 	5.96497257663e-05
 3.12414984438 	0.485547265171 	-0.000196171444038
 3.00631262047 	0.795908144774 	-0.000429584751752
 2.70921357938 	0.78975970144 	0.000137741215104
 2.49932070348 	0.350973317909 	0.000432455188839
 2.63541857617 	0.058630552499 	-1.24017266204e-05
 2.98917602771 	0.191586603807 	-0.000211122245779
 3.23869974398 	0.32735674341 	-0.000135254058046
 3.42133443929 	-0.0122823378837 	-2.00904967116e-05
 2.93830377078 	-0.0104758296359 	6.73621522332e-05
 2.31321096487 	0.122565991485 	5.35299760078e-05
 2.57648796731 	0.131378091868 	0.00015193392881
 2.76503739259 	0.299534975242 	1.90402559347e-06
 2.74358344707 	0.0798277850564 	0.000143404320007
 3.04654145847 	-0.397742015478 	0.00035063147615
 3.44810230339 	-0.575515971812 	1.64041121801e-06
 4.02123515678 	-0.116678499539 	-0.000134906131972
 4.01115843787 	0.0782590622034 	-0.000467147409848
 3.82960856018 	0.152202528241 	-0.000317938677335
 4.31092721689 	0.221936037278 	-0.00049569070516
 4.31511380302 	0.334626192413 	-0.000329670124965
 3.62170233497 	0.502895747225 	-1.22117111979e-05
 3.04372976723 	-0.026825419505 	0.000573841807206
 2.8740379889 	-0.365054497641 	-0.000207154804615
 3.00315696932 	-0.189158596769 	-0.000211925568397
 3.68464312946 	0.213271387317 	-3.26742522103e-05
 3.27085518928 	0.826927422672 	-4.21623616099e-05
 2.37234840289 	0.710085458432 	3.05911029947e-06
 2.56290447583 	0.176984835806 	-0.000106338820854
 2.71911700129 	-0.0104899792079 	-6.73402015758e-05
 2.92689121839 	-0.283972500755 	-9.45875585428e-06
 3.57717541616 	-0.756593360575 	0.000114837511743
 4.71215164876 	-0.725256403332 	3.1999873754e-05
 5.00539461999 	-0.762071949643 	-0.000520953113809
 3.97000300082 	-0.538201475503 	-0.000458221659971
 3.45093176068 	0.226313629972 	1.8970083764e-05
 3.42985153391 	0.58433120217 	-0.000344893193922
 3.46898336654 	0.527644979748 	-0.00033902270768
 3.73592364699 	0.0865561637304 	0.000266391415706
 4.04141331856 	-0.305038669874 	0.000135825861183
 4.34345494322 	-0.636165158537 	-7.15431826325e-05
 3.68895957071 	-0.666079508408 	-0.000274601824488
 2.95879480553 	-0.498517969655 	-0.000413419282256
 3.33329855983 	0.11082401179 	-9.69107300678e-05
 3.91566631098 	0.849142861353 	-0.000202909550164
 4.39416072788 	1.06508427001 	9.73734419373e-06
 4.1571642038 	0.850819996173 	0.000145413633974
 3.25346112757 	0.331333558656 	0.000233890720742
 2.87113690145 	-0.0871261786184 	0.000377161611473
 3.09584455795 	-0.562327380428 	-2.55574212462e-05
 3.750850861 	-0.664110217481 	-9.36222271413e-05
 4.54352536791 	-0.672650668442 	0.000140596827674
 4.87388213294 	-0.331582275048 	-0.000326004751231
 4.48872348417 	0.585477237144 	-0.000515774086567
 3.63363773978 	0.914121980207 	-0.000156387051295
 3.01713815575 	0.74300400869 	-3.34805854699e-05
 3.08113856881 	0.43360507097 	-7.16360046159e-05
 3.42199526564 	0.441429555654 	-0.000137509068113
 3.58545125369 	0.622172277093 	-0.000153731461973
 3.55954188882 	0.720318847406 	-0.00019438955672
 3.46543330988 	0.697427370691 	-7.886020319e-05
 3.32470511045 	0.479017405228 	7.46306950971e-05
 3.54782182521 	0.350889239151 	5.12757107473e-05
 4.12476691319 	0.467436005277 	0.0001074925739
 4.41147632881 	0.373981935803 	-5.65721221873e-05
 4.25708552101 	0.071187031052 	-4.06271010252e-05
 3.79323837813 	-0.184771012608 	-0.000119702909503
 3.83056854077 	-0.431703221804 	0.00019452394359
 4.30802238746 	-0.363071706805 	-4.51767874562e-05
 4.45069863855 	-0.229118718495 	-0.000568004786998
 4.33875233296 	-0.104454074058 	-0.000618891752594
 4.12843771945 	-0.284705128951 	-0.000413112441002
 4.50832657946 	0.218455578557 	0.0483691550961
 4.60250587247 	0.224498465602 	0.0524604033348
 4.67787853589 	0.144484174412 	0.0836687352904
 4.65003519813 	0.0802790351956 	0.100506125706
 4.57331827088 	0.0374200216821 	0.0827523857682
 4.8520020697 	-0.0784448846553 	0.0778396590046
 5.24770305749 	-0.167003995466 	0.0611118821075
 5.32864417419 	-0.117744354714 	-0.0283695279409
 5.20299207712 	0.0281416205546 	-0.165380519231
 5.20840352839 	0.261139649487 	-0.243451631862
 5.40031584907 	0.408116196106 	-0.17964717296
 5.11358179569 	0.464227799329 	-0.0276502401707
 4.50289487322 	0.398764293689 	0.0915541705088
 4.49052820212 	0.241351815729 	0.154670264355
 4.8507246822 	0.107986262316 	0.173365721293
 5.0707509118 	0.0278776063397 	0.137885043887
 5.47647558495 	0.0823277291786 	0.0642371775178
 5.82597397632 	0.166561140694 	0.0091998388278
 5.77378186197 	0.202078167978 	-0.0178602612808
 5.65397497956 	0.188890251688 	-0.0162635627016
 5.4180527403 	0.219240978716 	0.041483962456
 4.86831615257 	0.279507771562 	0.132448433818
 4.59285618964 	0.193503730055 	0.151274051293
 4.999607113 	0.121817706947 	-0.00619371384539
 5.52364600693 	0.132729517991 	-0.209502983871
 5.66039486032 	0.310941028245 	-0.207289750289
 5.42864719646 	0.488135409851 	-0.042320925905
 5.28856627694 	0.476898299914 	-0.0460961226182
 5.25704078924 	0.402981910168 	-0.079333895654
 5.2377594689 	0.357474557281 	-0.057936086312
 5.29155033554 	0.251319119588 	-0.160656374298
 5.23216443298 	0.26234877096 	-0.235714217673
 5.47784630596 	0.57765306085 	-0.18804157683
 5.67058602176 	0.787497462492 	-0.0993671285972
 5.25698704954 	0.94846618265 	-0.00146584473027
 5.10431032314 	1.14635148102 	0.0194429455629
 5.03419003259 	1.1555625397 	0.0373540808731
 4.47960725786 	1.04833696562 	0.163054567599
 3.78857387849 	0.810167990805 	0.276869415975
 3.60329655129 	0.624063079897 	0.189185430749
 3.88121888754 	0.581251591497 	-0.0289281738384
 4.30135843537 	0.650545297764 	-0.146236464287
 4.48391295692 	0.854430573491 	-0.169103759773
 4.07934329871 	0.759846718098 	-0.147373681157
 3.74820128209 	0.326047526275 	-0.0928622002547
 3.79459182196 	0.132714468806 	0.0858546575119
 4.13969973669 	0.183815297693 	0.266894235882
 4.47678417853 	0.251015944022 	0.293112012596
 4.39040574533 	0.262573676291 	0.2015045465
 4.52345389703 	0.288309678338 	0.0646609518441
 4.61884465121 	0.633346449713 	0.0600239830095
 4.02390224114 	0.882136244398 	0.26377715612
 4.0196078122 	0.783600317909 	0.370061221755
 4.63357914833 	0.723339021958 	0.237097656299
 5.22247325763 	0.89780183745 	0.154215030904
 5.44797205037 	1.09612112258 	0.155298768348
 4.85000818662 	1.03522289055 	0.165543717933
 4.30432402836 	0.741286331929 	0.179248059855
 3.80209240714 	0.507457977254 	0.0850919702496
 3.29677838496 	0.636524306086 	-0.0170247037528
 3.26917780154 	0.54203200611 	0.155970683642
 3.82199071236 	0.252608720362 	0.248638836231
 4.46028175961 	0.250948526172 	0.0304611800525
 4.84855725943 	0.360149268069 	-0.184273572437
 5.04793118145 	0.517428718092 	-0.238745632743
 4.8448983073 	0.62592917579 	-0.0941641272795
 4.5955228917 	0.650723796397 	0.0900467464967
 4.62931405113 	0.526196989857 	0.104128215733
 4.71287719363 	0.395491049279 	0.0248657104156
 4.61830347012 	0.349203804537 	0.0347853493238
 4.69880966945 	0.357148790148 	-0.00873338606799
 4.72644750547 	0.418571439016 	-0.00892184315837
 4.44094759903 	0.511394606389 	0.03351837939
 3.98331059701 	0.579880045619 	0.0354571137847
 3.90515045723 	0.528441983472 	-0.0351487537751
 4.55729063649 	0.67821002655 	-0.210730790027
 4.84114524532 	0.680170422756 	-0.151181747643
 4.72994997071 	0.414209186808 	-0.0482423875274
 4.87638888369 	0.35390313369 	-0.10458301134
 4.78871944143 	0.246919454827 	-0.0874482511454
 4.50094520401 	0.064140257904 	-0.0144773859643
 5.01524969968 	0.0997418695974 	-0.102027053918
 5.50116951568 	0.172920212881 	-0.215604768754
 4.75848663288 	0.368779391122 	-0.133773963184
 3.7594031924 	0.477786298461 	0.115100723769
 3.68406622308 	0.356326216406 	0.23803329929
 4.0813457188 	0.231055129717 	0.167302020537
 4.26625722195 	0.0848973807329 	0.0625729555559
 4.473928813 	-0.0543442495262 	-0.136206096766
 4.62963170267 	-0.178335990229 	-0.188498108365
 4.56840350421 	-0.0708163011933 	-0.140211078387
 4.22386278862 	0.122537059371 	-0.14921969093
 3.92509750139 	0.222897252946 	-0.0659288060288
 4.24443202194 	0.206066831288 	-0.0630290079674
 4.74724670639 	0.252735541209 	-0.148918343287
 4.94546136515 	0.270711107998 	-0.157987999009
 5.23031562857 	0.0601910468631 	-0.19579149723
 5.02039254333 	0.166869237561 	-0.111598678175
 4.50224524161 	0.445732072751 	0.075791249795
 4.34082651799 	0.314104915008 	0.114280835731
 4.35282636028 	0.0744674005397 	0.0723160284563
 4.50383877127 	-0.0898779689918 	0.0456111342806
 4.59959129871 	-0.162574090108 	-8.10008947243e-05
 4.70041777116 	-0.143872610567 	-0.0319201805996
 4.67353888103 	-0.159231089227 	0.00606882088664
 4.63269655738 	-0.186604457167 	0.0458748860506
 4.83880932253 	-0.186546494267 	-0.0128241763298
 5.00963214925 	-0.0790958964936 	-0.108396338906
 4.9836236097 	0.00647429723888 	-0.0882764397818
 5.14767208242 	-0.00281460275264 	-0.0565127067383
 5.44261024872 	-0.0415520360725 	-0.0796215627922
 5.2304251118 	-0.0685719196101 	-0.0389422877158
 4.8543052696 	0.0748695312119 	0.00892398933545
 4.88897083884 	0.139777884368 	-0.0263177907975
 5.04254389612 	0.0943855472705 	-0.047794818957
 5.2058356544 	0.142620871192 	-0.054430150163
 5.01523071112 	0.295703498524 	-0.055621121821
 4.80988314568 	0.351607516073 	-0.0833362644938
 4.96706616325 	0.305546966044 	-0.178573197796
 4.72886552241 	0.279907488345 	-0.210704260139
 4.19319378931 	0.146790923136 	-0.112494318283
 3.80213337133 	0.00958396363775 	0.0614668686882
 4.2177346737 	-0.169723718554 	0.038332424153
 4.99671140691 	-0.286070116194 	-0.202864950749
 4.85088426114 	-0.103799042502 	-0.190947826643
 4.58061743822 	0.103828652541 	-0.12186888889
 4.95515571168 	0.227401288231 	-0.197289295771
 4.94133843496 	0.340343221124 	-0.0725567896947
 4.56374365335 	0.313933036192 	0.113229315379
 4.42917321993 	0.333258103917 	0.0808830264765
 4.13144780925 	0.337911854067 	0.0155016233605
 3.98843097669 	0.333499152014 	-0.0134737406512
 4.47744701282 	0.389978727415 	-0.173029946023
 4.84459021863 	0.351539690015 	-0.281376073476
 4.57085464036 	0.449367507301 	-0.171523660872
 4.11403904038 	0.579526177677 	8.01257609196e-05
 3.87554393194 	0.521979213502 	0.0811652633279
 4.18820913787 	0.365005865754 	0.0587843321324
 4.53723212587 	0.241683655557 	0.0267703779455
 4.59538536214 	0.315332573355 	-0.000671041712388
 4.6578379046 	0.48157912063 	-0.0438578898337
 4.6159483599 	0.553446225793 	-0.0360086919818
 4.5079040335 	0.543862665752 	-0.00939985006629
 4.35891752809 	0.531768656071 	0.0509427735066
 3.99703140538 	0.584792954982 	0.153031693584
 3.57848801572 	0.431445912104 	0.170393920669
 3.73863305157 	0.344308252069 	0.046203848213
 3.87305793038 	0.472061114006 	0.0117209197757
 3.82944717457 	0.485457923231 	0.0743498061351
 4.00312033067 	0.370342500031 	0.0717144873508
 3.97382979867 	0.291265104613 	0.0632468990228
 4.04606924722 	0.424236003282 	0.0317579886854
 4.07810965597 	0.540597407976 	0.0159002268068
 4.11854105189 	0.599596310231 	-0.0230362044778
 4.32404584758 	0.683589012408 	-0.0769824431061
 4.23862276926 	0.567255238254 	-0.0232414767519
 4.1571033968 	0.484735707724 	0.0480794298791
 4.22196299919 	0.43764523575 	0.0690890900558
 4.23047490732 	0.287753080895 	0.0120507038215
 4.21077267935 	0.218440207116 	-0.0431222452961
 4.44933098003 	0.209717645599 	-0.109497347211
 4.79285017873 	0.288519241112 	-0.164241797124
 4.93801117037 	0.320387789566 	-0.181647813125
 4.73947722956 	0.447340724929 	-0.129847619744
 4.66595757056 	0.732598784977 	-0.0337969100656
 4.75918622219 	0.850869574753 	0.0153094703676
 4.2649994182 	0.782730300175 	0.105147658411
 3.64384605623 	0.674695797702 	0.292831631739
 3.29174915052 	0.308629873609 	0.3913548774
 3.28967359905 	-0.00792543312709 	0.228906167607
 3.57324633658 	-0.116700134205 	0.111876741634
 3.79448830105 	-0.348356444014 	0.0890351986386
 4.01390077929 	-0.380981906358 	0.0730075289533
 4.22248625963 	-0.315643958317 	0.115847866081
 4.29350835166 	-0.440259849002 	0.162742905193
 4.34845732662 	-0.679878033829 	0.175026977065
 4.49256952138 	-0.680136871681 	0.141416990637
 4.97242080867 	-0.309352604758 	0.0358180032804
 5.50278717536 	-0.0893225199416 	-0.13063309597
 5.43890279408 	0.0412100352633 	-0.0950111356045
 5.1728248996 	0.214844023449 	0.0476961827281
 4.96087447751 	0.581191331036 	0.112285261929
 4.43676847937 	0.869571973521 	0.178931493847
 4.07262617403 	0.810173146306 	0.124854043155
 4.23958181709 	0.598795287458 	-0.0014308284821
 4.48601094851 	0.404274063511 	-0.0475117191007
 4.46168263613 	0.399912422355 	-0.0176028399882
 4.39964713371 	0.394686908166 	-0.00919484304381
 4.32030521413 	0.475755619541 	0.0659368060748
 4.02193781771 	0.411251537657 	0.170662279376
 3.98887476973 	0.306749864866 	0.109877539165
 4.47499574732 	0.295950816302 	-0.0959354313206
 4.38714559497 	0.277610394803 	-0.0486001087643
 3.71678524442 	0.314374220928 	0.135340932091
 3.61863367188 	0.344826527522 	0.0959030908848
 3.75160233219 	0.278184218741 	0.110280514125
 4.0366547838 	0.082370303407 	0.110921869486
 4.23616135474 	0.0945228031061 	0.0971966707758
 4.07416201691 	0.0948361034462 	0.0958978235797
 3.95017818809 	0.00322092034471 	-0.0146624763788
 4.34601941639 	0.434787743671 	-0.136957312041
 4.84766254717 	0.64613682507 	-0.143553736421
 4.79542599559 	0.528600245281 	-0.0533211115106
 4.32615040852 	0.544438021041 	0.11549832197
 3.92575992296 	0.285328660826 	0.128237765177
 3.76165015357 	0.0211148141042 	0.0714007118317
 3.72013667984 	-0.149662020576 	0.146482793315
 3.73481720374 	-0.277903064209 	0.161023852317
 3.85191594584 	-0.211297314481 	0.0847091752511
 3.90970748926 	-0.141359817831 	0.0286017817547
 3.68036105078 	-0.284383634642 	0.112998250621
 3.67844181765 	-0.44847636567 	0.0648869001262
 3.86074228885 	-0.606136560636 	-0.08260519555
 4.12659775409 	-0.502219316217 	-0.171092829437
 4.19531737338 	-0.133617912044 	-0.190700267673
 3.91071360577 	0.136768733847 	-0.0898111192136
 3.83640078458 	0.222619079539 	-0.0351071053186
 3.94236236283 	0.236075175005 	-0.0348227725937
 4.00093037335 	0.224197341344 	-0.10064046076
 3.66294947705 	0.138881671212 	-0.110082141004
 3.81640275342 	0.292246457942 	0.0308139075243
 4.44892321661 	0.51452417973 	0.0187982181945
 4.54578074296 	0.684860394249 	-0.214103961735
 4.51238240889 	0.889329564621 	-0.264054717087
 4.48506382757 	0.850161951553 	-0.145801944807
 4.53371605735 	0.851851081521 	-0.15753028609
 4.94782609611 	0.645766817595 	-0.160379515726
 5.20001852378 	0.6310830518 	-0.0556073480592
 4.73249169616 	0.670658773472 	0.105745674073
 4.73878995595 	0.227193101396 	0.0714582440274
 4.76672112753 	-0.0160354943383 	0.0292650153924
 4.10694898506 	0.0139391707298 	0.123704666967
 4.1431452232 	0.0844974860082 	0.0115940247082
 4.49545856466 	0.085224590812 	-0.0369926969578
 4.71296545801 	0.168542700653 	0.0266838547576
 5.06257729465 	0.247294947198 	0.00749233694863
 5.12390732856 	0.327887525445 	0.00868333641246
 5.11902786793 	0.402824093038 	-0.00434632551454
 5.17028264028 	0.500014782702 	-0.0799733902695
 5.20980220291 	0.635258202597 	-0.148909444887
 5.04862164924 	0.739332201391 	-0.105224799841
 4.52209498649 	0.757579523268 	0.0368862918459
 4.19318082285 	0.694015573098 	0.165948521806
 4.30460295999 	0.635437471199 	0.150658410263
 4.6355655035 	0.771393495313 	-0.0482187906325
 4.96406156752 	0.941586897675 	-0.213056299394
 4.80326474038 	0.960398499422 	-0.118180526568
 4.20453372828 	0.876647101923 	0.060543937043
 3.70079492913 	0.612144394547 	0.0947907987227
 3.95301962007 	0.464902581654 	0.002637979195
 4.49199920574 	0.489678801001 	-0.145318456519
 4.43827940986 	0.495510881367 	-0.142582476934
 4.18314776605 	0.461640833767 	-0.00694381469276
 3.96924094147 	0.445663670905 	0.0498066131354
 3.6191144624 	0.462024346089 	0.070920032127
 3.52233884577 	0.466220233184 	0.0555145074391
 3.73695149229 	0.458185262009 	0.0712038440037
 3.87685927305 	0.238292540019 	0.0891837131078
 3.88101577616 	0.19799128536 	0.0268908769899
 3.8251502029 	0.416298197896 	0.061970033618
 3.79922779731 	0.443086856342 	0.101888954749
 3.8289090848 	0.361622572288 	0.0807961029068
 3.82969417686 	0.212056968396 	0.119310783452
 3.80889560405 	0.0704317027439 	0.136852439553
 3.90829620998 	0.0604745967279 	0.0183117777946
 4.40309813337 	0.229502398198 	-0.171423259552
 4.85775103476 	0.353140334552 	-0.197672788103
 4.88611386476 	0.251405290175 	-0.162873464551
 4.77552670842 	0.0755504055207 	-0.178279585506
 4.54849799136 	-0.080255568997 	-0.117305588663
 3.99942439327 	-0.0329435527257 	0.138435110234
 3.55534394939 	-0.199670150225 	0.271059683077
 3.83733672773 	-0.35925181108 	0.137504751132
 4.41013237036 	-0.11074212477 	0.0227441061247
 4.54117363835 	0.00891124524199 	0.0262527521452
 4.19119591412 	0.00703661695198 	0.121890514649
 4.22757842691 	0.0241514607319 	0.109094827252
 4.40083559418 	-0.0524052949329 	0.0304427354215
 4.44604757634 	-0.096794038738 	0.0321824563191
 4.48456403022 	-0.141456648822 	0.0770332757795
 4.47662761898 	-0.228541940623 	0.0225841238799