# vtk DataFile Version 3.0
array.1
ASCII
DATASET STRUCTURED_POINTS
DIMENSIONS 1 321 161
ORIGIN 1500.01 799.99 0.001
SPACING 0 1.25 1.25
POINT_DATA 51681
 FIELD attributes 2
T 1 51681 float
299.99953734
 299.999487239
 299.999482583
 299.999478799
 299.999534534
 299.999838873
 300.000253084
 300.000295099
 300.000115379
 300.000199242
 300.000135063
 299.99985658
 299.999714233
 299.99971625
 299.999761807
 299.99984697
 299.999813194
 299.999913912
 300.000086974
 299.999967072
 299.999907095
 299.999903588
 299.999751744
 299.999620682
 299.999625479
 299.999832904
 300.000086795
 300.000156618
 300.00001324
 299.999783522
 299.999605801
 299.999669575
 299.999898366
 299.999891664
 299.999938355
 300.000244221
 300.000209215
 299.999753692
 299.999404164
 299.999379378
 299.999427228
 299.999219594
 299.999003567
 299.999070752
 299.999370406
 299.999695826
 299.999812616
 299.999751729
 299.99974857
 299.999619252
 299.99937219
 299.999437337
 299.999870366
 300.000289026
 300.000432643
 300.000367408
 300.000253934
 300.000263571
 300.000191531
 300.00002065
 299.999851335
 299.999763487
 299.99962592
 299.999257032
 299.999330839
 299.999539358
 299.99948177
 299.9996284
 299.999803632
 299.999633439
 299.99936692
 299.9994667
 299.999572185
 299.9996777
 300.000305978
 300.000525496
 300.000055978
 299.99978524
 299.99975591
 299.999710872
 299.999586686
 299.999492512
 299.999659517
 299.999989891
 300.000027689
 299.999890516
 299.999783352
 299.999751606
 299.99984524
 299.999823286
 299.999780526
 299.999809676
 299.999823214
 299.999930137
 300.00001413
 300.000180217
 300.000000773
 299.999581161
 299.999632337
 299.999707797
 299.999621375
 299.99964042
 299.999678107
 299.999644961
 299.999676487
 299.999786859
 299.999850658
 299.999810586
 299.999765492
 299.999817948
 299.999936831
 300.000104957
 300.000037512
 299.999834081
 299.999708026
 299.999587236
 299.999670803
 299.999854417
 299.999841608
 299.999800107
 299.999975948
 300.000147149
 300.000015082
 299.999753313
 299.999769806
 299.99974783
 299.999644497
 299.999624202
 299.999651025
 299.999743873
 299.999729646
 299.999813783
 299.999983406
 299.99978785
 299.999582128
 299.99962205
 299.999614564
 299.999549569
 299.999606065
 299.999668415
 299.999626199
 299.999732885
 299.999811059
 299.999721689
 299.999716894
 299.999724139
 299.999760485
 299.999985292
 300.000048459
 299.999843738
 299.999733481
 299.999730464
 299.99980256
 299.999865563
 299.999828973
 299.999723265
 299.999674087
 299.999680943
 299.999593049
 299.999604397
 299.999706228
 299.999738267
 299.999799247
 299.99982879
 299.999910564
 300.000009204
 299.999866556
 299.999616455
 299.999547238
 299.999634419
 299.999732911
 299.999792353
 299.999800139
 299.999677175
 299.999574636
 299.999804516
 299.999834359
 299.999090204
 299.998673924
 299.998795875
 299.998725986
 299.998976181
 299.999603029
 300.000021079
 299.999792562
 299.999463271
 299.999456413
 299.999466521
 299.999570085
 299.999805509
 300.00004871
 300.000406726
 300.000422145
 300.000109561
 300.000083527
 300.000112391
 300.000061595
 299.999866799
 299.999571596
 299.999552038
 299.999864316
 300.000035228
 299.999957254
 299.999771968
 299.999696164
 299.999721991
 299.999387836
 299.999244358
 299.999431664
 299.99949839
 299.999452625
 299.99953975
 299.999684509
 299.999516188
 299.999554422
 299.999729301
 299.999584234
 299.999483944
 299.999632712
 299.999816076
 299.999738486
 299.999931054
 300.000106431
 299.999972106
 300.000139327
 300.000142625
 299.999967615
 300.000134309
 300.000003286
 299.999556503
 299.999288802
 299.999127445
 299.999203933
 299.999353644
 299.999138689
 299.998777495
 299.998634986
 299.998656754
 299.998830078
 299.998837048
 299.998629323
 299.998484562
 299.998662417
 299.999027823
 299.999259724
 299.999216179
 299.999121398
 299.999498235
 300.000024028
 300.000049413
 299.999704312
 299.999536644
 299.999697514
 299.999890751
 300.000025162
 300.000101131
 300.00011799
 300.000150756
 300.000045173
 299.999913058
 299.999932238
 299.999991877
 299.999942384
 299.999825187
 299.999925609
 299.999950559
 299.999732265
 299.999648768
 299.999654562
 299.999777132
 299.999943719
 299.999760471
 299.999618783
 299.999690812
 299.999575498
 299.999606662
 299.999775342
 299.999729553
 299.999692168
 299.99973358
 300.000004206
 300.000576912
 300.000659286
 300.000232111
 300.000011637
 299.999943206
 300.000021852
 300.000024709
 300.000004421
 300.000198761
 300.000181108
 300.00006751
 300.000036453
 300.000036455
 300.000181895
 300.000223879
 299.999974832
 299.999679123
 299.999594631
 299.999447633
 299.999298831
 299.999247864
 299.999194246
 299.999277655
 299.999397409
 299.999411638
 299.999398666
 299.99946684
 299.999515395
 299.999559514
 299.999648822
 299.999726994
 299.999865725
 299.9999637
 300.000162433
 300.000331514
 300.000216168
 300.000216301
 300.000358699
 300.000357972
 300.000162158
 299.999582795
 299.999609223
 299.999701709
 299.999743622
 299.999752856
 299.999972578
 300.000287022
 300.0003016
 300.000147974
 300.000142607
 300.000193617
 300.000097008
 299.999910683
 299.999852627
 299.999895972
 299.999976517
 299.999898381
 299.999849903
 299.999877942
 299.999875573
 299.999939943
 299.999905946
 299.999748019
 299.999798735
 299.99995242
 299.999921536
 299.99980264
 299.999825982
 299.999957318
 299.999859548
 299.999672743
 299.999612631
 300.000069134
 300.000365948
 299.999878146
 299.999926955
 300.000831282
 300.000740668
 299.99983789
 299.999531084
 299.999447554
 299.999321906
 299.9991936
 299.999153781
 299.999538683
 300.000006475
 299.999896682
 299.999629076
 299.999620323
 299.999544012
 299.999254648
 299.999230145
 299.999301907
 299.999509227
 299.999866234
 299.999858072
 299.999901535
 300.000161378
 300.000095041
 299.999918159
 299.999850817
 299.99976851
 299.999681692
 299.999338037
 299.999258392
 299.999392667
 299.999386663
 299.999534255
 299.999676636
 299.99954218
 299.999367759
 299.999443357
 299.999434839
 299.999519907
 300.000053071
 300.000277456
 299.999970474
 299.999787628
 299.999825935
 299.999825568
 299.999765749
 299.999778464
 299.99989059
 300.000062251
 300.000070956
 299.99992342
 299.999829826
 299.999849508
 299.999887614
 299.999732382
 299.999676016
 299.999865182
 300.000014117
 300.000122888
 300.000126234
 300.000124875
 300.000031022
 299.999796274
 299.999794855
 299.999759903
 299.999543181
 299.999550695
 299.999675945
 299.99970343
 299.999743033
 299.999757754
 299.9997734
 299.999847403
 299.999884962
 299.999843397
 299.999902043
 299.999913305
 299.999683262
 299.999620665
 299.999740204
 299.999790705
 299.999851295
 299.999961067
 300.000027748
 299.999912796
 299.99979861
 299.999764146
 299.999721512
 299.999856545
 300.000070654
 299.999808572
 299.999583883
 299.999685779
 299.999803039
 299.99990968
 299.999758771
 299.99967322
 299.999827442
 299.999781144
 299.99969135
 299.999711358
 299.999722452
 299.999679745
 299.999709672
 299.999846123
 299.999778852
 299.999770074
 299.999811692
 299.999724262
 299.999735159
 299.999790005
 299.999838552
 299.999956646
 299.999976443
 299.99987825
 299.999784683
 299.999712984
 299.999724647
 299.99978519
 299.999808192
 299.999790768
 299.999770161
 299.999760414
 299.999704368
 299.99977169
 300.000003779
 300.000023546
 299.999969775
 299.99998294
 300.000113581
 300.000248642
 300.000040576
 299.999689719
 299.999559889
 299.999568423
 299.999622609
 299.999697048
 299.999558518
 299.999297756
 299.999175353
 299.999249652
 299.99923188
 299.998978492
 299.999015673
 299.999176227
 299.999088594
 299.999040245
 299.99932596
 299.999504555
 299.999183101
 299.999065956
 299.999286982
 299.999425088
 299.99951363
 299.999673354
 299.999848063
 300.000010289
 299.999995739
 299.999982291
 300.000108595
 300.000183885
 300.000204173
 299.99995725
 299.999595677
 299.999656265
 300.000035384
 299.999995755
 299.999801221
 299.999827797
 299.999791318
 299.99967894
 299.999323026
 299.999128825
 299.999378488
 299.999583779
 299.999526073
 299.999573641
 299.999596254
 299.999231207
 299.99916533
 299.999473818
 299.999490829
 299.999407037
 299.99935767
 299.999428897
 299.999474275
 299.999624227
 299.999809226
 299.999809776
 300.00002879
 300.000103622
 299.999894457
 300.000112766
 300.000073975
 299.999562754
 299.999308515
 299.999188785
 299.999418096
 299.999679563
 299.999489496
 299.999085235
 299.998872053
 299.998955862
 299.999169657
 299.999253957
 299.999033216
 299.998726837
 299.998756792
 299.999139871
 299.999449598
 299.999489701
 299.999477816
 299.999604709
 299.999728103
 299.999951355
 300.000054346
 299.999839836
 299.999794493
 299.999848479
 299.999899323
 299.999983502
 300.000039781
 300.000117822
 299.999982568
 299.999828528
 299.999957975
 300.000097882
 300.00007332
 299.999993728
 300.000040697
 300.00002665
 299.999781777
 299.999564595
 299.999519574
 299.999700691
 299.999937233
 299.999846542
 299.999671717
 299.999662794
 299.999473717
 299.999573688
 299.999961343
 299.999814073
 299.999572189
 299.999603097
 299.999722597
 300.000193212
 300.000495784
 300.000421815
 300.000555668
 300.000477053
 300.000171732
 300.000053048
 300.000171695
 300.000406549
 300.000487984
 300.000440958
 300.000218746
 299.9999395
 299.999984111
 300.000093123
 300.000049594
 299.999881094
 299.999742544
 299.99955708
 299.999496613
 299.999480159
 299.999273666
 299.999266239
 299.99940245
 299.99947191
 299.999471289
 299.999521035
 299.99957414
 299.999642927
 299.999739899
 299.999737285
 299.999798964
 299.999948463
 300.000107232
 300.000131145
 299.999968141
 299.999980702
 300.000145718
 300.000214301
 300.000137535
 299.999660704
 299.999690369
 299.999840003
 299.9999558
 299.999971257
 300.000121871
 300.000327398
 300.000327695
 300.000199893
 300.000098305
 300.0002859
 300.000381555
 300.000137766
 299.999992902
 300.000002788
 300.000106656
 300.000047807
 299.999799906
 299.999608373
 299.999654841
 299.99980678
 299.999842165
 299.999769217
 299.999788676
 299.999912638
 299.999768804
 299.999513495
 299.999596086
 299.999885373
 300.000038014
 300.000148499
 300.000094897
 300.000368623
 300.000760144
 300.000289435
 300.000151366
 300.001176274
 300.001292894
 300.000233781
 299.999730783
 299.999577406
 299.999488782
 299.999449527
 299.999340323
 299.999627016
 300.000009913
 299.999912779
 299.999628586
 299.999446626
 299.999429605
 299.999253732
 299.999369837
 299.999422381
 299.999344995
 299.999638166
 299.999998319
 300.000395356
 300.000361022
 299.99973291
 299.999356316
 299.999583273
 299.999763838
 299.999778623
 299.999481153
 299.99928766
 299.999337817
 299.999315171
 299.999456954
 299.999640108
 299.999625771
 299.999648654
 299.999778836
 299.999580755
 299.999383252
 299.999728362
 300.000059525
 299.999842221
 299.999636702
 299.999748419
 299.999828723
 299.999898486
 300.000087421
 300.000164199
 300.000007509
 299.99987124
 299.999839393
 299.999854658
 299.999834073
 299.99974583
 299.999591371
 299.999582095
 299.999857338
 300.000109523
 300.000175742
 300.000115381
 300.000032684
 300.0000213
 299.999909164
 299.999848677
 299.999753991
 299.999433872
 299.999404487
 299.999594655
 299.999661572
 299.999705107
 299.999724929
 299.999726076
 299.999794953
 299.999819604
 299.999780424
 299.999819787
 299.999707582
 299.999583522
 299.999799232
 300.000121612
 300.000256883
 300.000218835
 300.00020154
 300.000179651
 299.999922213
 299.99963601
 299.99974259
 300.000191816
 300.000419656
 300.000397983
 300.000047832
 299.999844073
 300.000098985
 300.000333226
 300.00044481
 300.000093498
 299.999704681
 299.999663209
 299.999692685
 299.999852607
 299.999958378
 299.999916596
 299.999848086
 299.999860048
 300.000009646
 299.999936091
 299.999848177
 299.99982866
 299.999731491
 299.999726002
 299.999770495
 299.999910246
 299.999937377
 299.999803931
 299.999774961
 299.999688966
 299.99959887
 299.999625723
 299.999705729
 299.999791329
 299.99988114
 299.999904811
 299.999873331
 299.999846214
 299.999998501
 300.0003167
 300.000365125
 300.000202624
 300.000141737
 300.000323852
 300.000462545
 300.00023361
 299.999851686
 299.999653086
 299.999579133
 299.999560738
 299.999460431
 299.998996036
 299.998654169
 299.998626721
 299.998574195
 299.998729195
 299.999228928
 299.999621061
 299.999782268
 299.999717057
 299.999263754
 299.999005763
 299.998755191
 299.998514886
 299.998844329
 299.999247
 299.9992944
 299.999393987
 299.999662466
 299.999661479
 299.999588669
 299.999684918
 299.999885193
 300.00004569
 300.000172626
 300.000282533
 300.000088284
 299.999862261
 299.999992393
 300.000191825
 299.99996789
 299.999704022
 299.99987776
 299.999918642
 299.999642805
 299.999337977
 299.999207439
 299.999467073
 299.999727213
 299.999728421
 299.9997032
 299.999441434
 299.998727678
 299.998511649
 299.999179833
 299.99946754
 299.999188608
 299.99875203
 299.998703657
 299.998885357
 299.998872328
 299.999249732
 299.999691518
 299.999843138
 299.999903273
 299.999837879
 300.000119319
 300.000090911
 299.99966842
 299.999591885
 299.999406744
 299.999614121
 300.000041845
 300.000044741
 299.999749517
 299.999596726
 299.999819138
 299.999818585
 299.999575728
 299.999338185
 299.999079511
 299.998937892
 299.999283686
 299.99973297
 299.999754548
 299.999673672
 299.999708241
 299.999660821
 299.999880768
 300.000421597
 300.000402888
 300.000103471
 299.999889742
 299.999751048
 299.999782383
 299.999895307
 300.00012894
 300.000063374
 299.999886452
 300.000017871
 300.000237545
 300.000240147
 300.000083044
 300.000068935
 300.000104728
 299.999893087
 299.999554306
 299.999441024
 299.99963118
 299.999868148
 299.999836807
 299.999704959
 299.999724347
 299.999658504
 299.999829134
 300.000245827
 300.000075036
 299.999721819
 299.999642449
 299.999528831
 299.999784981
 300.000258193
 300.000510536
 300.000768219
 300.000718568
 300.000343852
 300.000230064
 300.000390897
 300.000606912
 300.000749029
 300.000714327
 300.000412872
 299.999994095
 299.999894042
 299.999969204
 300.000063352
 300.000049906
 299.999918896
 299.999729887
 299.999711562
 299.999757319
 299.999555278
 299.999405245
 299.999439612
 299.999496866
 299.999490902
 299.999552477
 299.999634657
 299.999752463
 299.999848719
 299.999785204
 299.999706891
 299.999748411
 299.999767922
 299.999629474
 299.999537131
 299.999615886
 299.999733033
 299.999834787
 299.999852614
 299.999738684
 299.999723756
 299.999794083
 299.999916892
 300.000022562
 300.000139105
 300.000278732
 300.000307173
 300.000227304
 300.000194698
 300.000339979
 300.0004651
 300.000337785
 300.000153967
 300.000105473
 300.000144935
 299.999941717
 299.999679572
 299.999610766
 299.999625377
 299.999623687
 299.999668916
 299.9997352
 299.99965186
 299.999531449
 299.999487508
 299.999650696
 299.999930311
 300.000066658
 300.000165825
 300.000470784
 300.000456997
 300.000365996
 300.000636556
 300.00072334
 300.000891735
 300.001111903
 300.000794684
 300.000034188
 299.999675312
 299.999701122
 299.999609386
 299.999526357
 299.999455825
 299.999556892
 299.999723458
 299.999855097
 299.999849761
 299.99956538
 299.999581053
 299.999644005
 299.999831696
 300.000155576
 300.000005758
 299.999912206
 300.000506412
 300.001040866
 300.00070735
 299.999820475
 299.999100504
 299.999456681
 300.000008244
 299.999997373
 299.999637388
 299.999367818
 299.99932077
 299.999230119
 299.999443093
 299.999790218
 299.999864075
 299.999874995
 299.999984375
 299.999813881
 299.999511946
 299.999678896
 299.999955461
 299.999796038
 299.999585708
 299.999618498
 299.999732563
 299.999884837
 300.000067492
 300.000132475
 299.999881442
 299.999649891
 299.999746672
 299.999842987
 299.999719069
 299.99959443
 299.999551345
 299.999635069
 299.999852677
 299.999922533
 299.999823612
 299.999865388
 299.999898015
 299.999824994
 299.999762852
 299.999747864
 299.99969873
 299.999520972
 299.999555555
 299.999755374
 299.999809706
 299.999787349
 299.999848762
 299.99989738
 299.999855381
 299.999736649
 299.999707203
 299.999714255
 299.999638904
 299.999731189
 299.999967863
 300.000218292
 300.000304209
 300.000190383
 300.000322943
 300.000378037
 299.999910079
 299.999548433
 299.999931492
 300.000626746
 300.000588577
 300.000295811
 300.000194276
 300.000166885
 300.00032793
 300.000494209
 300.000634897
 300.000429402
 300.00002224
 299.999730905
 299.999597667
 299.999832923
 300.000028465
 299.999897706
 299.999799122
 299.999842818
 299.999942827
 299.999910312
 299.999859827
 299.999846087
 299.999796724
 299.99976457
 299.999704549
 299.99978155
 299.999769937
 299.99958719
 299.999546027
 299.999547501
 299.999548513
 299.999631474
 299.999768298
 299.999870646
 299.999959165
 299.999968748
 299.999910295
 299.999931214
 300.000164541
 300.000382082
 300.000347786
 300.000186522
 300.000193948
 300.00046711
 300.000532728
 300.000312782
 300.00000683
 299.999754776
 299.999780184
 299.999677671
 299.99916018
 299.998408057
 299.99807305
 299.998356513
 299.998560845
 299.99877011
 299.999222024
 299.999524742
 299.99991122
 300.000077946
 299.999589344
 299.99914809
 299.998706888
 299.998564789
 299.998902569
 299.999074593
 299.99889798
 299.999081361
 299.999639426
 299.999657645
 299.999541109
 299.999729266
 299.999829572
 299.999899814
 300.000084394
 300.000190219
 300.00003851
 300.000001902
 300.00008275
 300.000001549
 299.999852736
 299.999629349
 299.999684256
 299.999792739
 299.999686113
 299.999524935
 299.99941606
 299.999558926
 299.999736119
 299.999761462
 299.999608319
 299.999241454
 299.998560274
 299.998317178
 299.998821839
 299.998889921
 299.99844487
 299.998027695
 299.997649779
 299.997558149
 299.997701832
 299.998233877
 299.999081461
 299.999559044
 299.999745275
 299.999874087
 300.000151031
 300.000086531
 299.999792303
 299.999886865
 299.999883965
 299.99998862
 300.000303049
 300.000384888
 300.000299058
 300.00022788
 300.000283188
 300.000053245
 299.999657268
 299.999495571
 299.999473923
 299.999369895
 299.999392162
 299.99975095
 299.999693283
 299.999500768
 299.99948821
 299.999674696
 299.999907757
 300.00027121
 300.000592628
 300.000435007
 300.000202072
 299.999891395
 299.999668232
 299.999762066
 300.000121981
 300.000187081
 300.000045174
 300.000088075
 300.000253168
 300.000160942
 299.999883044
 299.999963317
 300.000109316
 299.999861153
 299.999493225
 299.999395535
 299.999520671
 299.999717335
 299.999794363
 299.999821862
 299.999981533
 299.999999741
 300.00000573
 300.000154336
 300.000088506
 299.999896341
 299.999806554
 299.999753207
 299.999868707
 300.000192303
 300.000311972
 300.000288081
 300.000324003
 300.000370794
 300.000482854
 300.000539942
 300.000589421
 300.000564123
 300.00052029
 300.000459305
 300.00020454
 300.000029887
 299.999995151
 299.999982802
 299.999949924
 299.999878234
 299.999787253
 299.999729287
 299.999643834
 299.999567445
 299.99950497
 299.999522485
 299.999557554
 299.999463799
 299.999465347
 299.999592731
 299.999776163
 299.999841136
 299.999777229
 299.999656404
 299.999503397
 299.999317479
 299.999125696
 299.999187824
 299.999297396
 299.999354734
 299.999505987
 299.999610019
 299.999862559
 299.999905528
 299.999935219
 300.0000331
 300.000116475
 300.000106998
 300.000159447
 300.000198005
 300.000185806
 300.000289421
 300.000406909
 300.000464308
 300.000358485
 300.000180943
 300.00013941
 300.000137831
 299.999817808
 299.999583546
 299.999677697
 299.999695282
 299.999570086
 299.999528647
 299.999608753
 299.999577606
 299.999460621
 299.999505082
 299.999776289
 300.000063113
 300.000087718
 299.999989842
 300.000037667
 299.999973622
 300.000073772
 300.000423383
 300.000655447
 300.000938435
 300.000951403
 300.000472081
 299.999919874
 299.999684298
 299.999723522
 299.999707479
 299.999605762
 299.999515237
 299.999521282
 299.999657704
 299.999896252
 299.999943187
 299.999591675
 299.99947185
 299.999551662
 299.999638176
 299.999999656
 300.00013492
 299.99999095
 300.000174199
 300.000592349
 300.000828474
 300.000689495
 299.999988558
 299.999899088
 300.000316338
 300.000248075
 299.999779902
 299.999507409
 299.999554016
 299.999399801
 299.999448442
 299.999832645
 300.000045329
 299.999996638
 299.999873764
 299.999741472
 299.999692925
 299.999727744
 299.999753461
 299.999732114
 299.999698573
 299.999699047
 299.99980146
 299.999927667
 299.999969052
 300.000001685
 299.999940435
 299.99975254
 299.999725758
 299.999794462
 299.999768265
 299.999682669
 299.999608799
 299.999726982
 299.99991096
 299.999781845
 299.999731453
 299.999926996
 299.999775551
 299.999561813
 299.999567676
 299.999631062
 299.999721843
 299.999726073
 299.999840991
 300.000032375
 300.000069947
 300.00004309
 300.000106674
 300.000207122
 300.000180305
 300.000044928
 299.999943465
 299.999855257
 299.999808851
 299.999821341
 299.999852321
 300.000017092
 300.000169095
 300.000123824
 300.000380503
 300.000589965
 300.000041966
 299.999544633
 299.999823175
 300.000297856
 300.000297469
 300.000175994
 300.000233725
 300.000290992
 300.000398508
 300.000410032
 300.000272075
 300.000224363
 300.000130305
 299.999903758
 299.999669991
 299.999672533
 299.999831771
 299.999895333
 299.999792271
 299.999752608
 299.999891552
 299.999922026
 299.999918881
 299.999909276
 299.999891581
 299.999895009
 299.999818697
 299.999750716
 299.999640549
 299.999521962
 299.999579782
 299.999765487
 299.999861208
 299.999883167
 299.999968031
 300.000037262
 300.000087081
 300.000015082
 299.999918037
 300.000018417
 300.00029905
 300.000459403
 300.000299944
 300.000146148
 300.000208729
 300.000419436
 300.000473548
 300.000314303
 300.000058719
 299.999879042
 300.000050978
 299.999655795
 299.99873097
 299.998069276
 299.997886137
 299.998385369
 299.998930632
 299.999030733
 299.999118052
 299.999320126
 299.999782839
 300.000145263
 299.999897255
 299.999509057
 299.99915901
 299.998912457
 299.998750384
 299.998691786
 299.998685256
 299.998959382
 299.999384204
 299.999554534
 299.999676807
 299.999737494
 299.999644615
 299.999773227
 300.000108558
 300.000238849
 300.000033084
 299.999918557
 299.999894086
 299.999739329
 299.999653714
 299.999517555
 299.999453211
 299.99949093
 299.99958059
 299.999523947
 299.999342692
 299.999394551
 299.999512936
 299.999521524
 299.999417485
 299.999183406
 299.998781753
 299.998413459
 299.998248152
 299.99794935
 299.997577955
 299.997492051
 299.997348858
 299.997145247
 299.99714445
 299.99725574
 299.997856743
 299.998750162
 299.999450802
 299.999716469
 299.999819535
 299.999863525
 299.99964718
 299.999709667
 300.000053884
 300.000344641
 300.00049685
 300.00052154
 300.000500749
 300.000391482
 300.000163092
 300.000144477
 300.000146176
 299.999914404
 299.999748664
 299.999609002
 299.999449031
 299.999566654
 299.999539076
 299.999508662
 299.999353728
 299.999367719
 299.999732162
 299.999834419
 299.999856702
 299.999911297
 300.000163915
 300.000051794
 299.999732056
 299.999783472
 300.00003147
 300.000107174
 300.000044626
 300.000102938
 300.00020685
 300.000007425
 299.999738739
 299.999902366
 300.000024771
 299.99972145
 299.999354537
 299.999275401
 299.999414519
 299.999732403
 299.99992188
 299.999852597
 299.999983164
 300.000016617
 299.999948808
 300.000025017
 300.00003612
 299.999912047
 299.999842333
 299.999892525
 299.999959692
 300.000120697
 300.000124781
 300.000081711
 300.00008779
 300.00016939
 300.000362
 300.000472087
 300.000507835
 300.000417683
 300.000482443
 300.000556774
 300.000376923
 300.0001779
 300.000026777
 299.999908641
 299.999815464
 299.999763209
 299.999708106
 299.999625434
 299.999497906
 299.999440321
 299.99948153
 299.999614309
 299.999726813
 299.99958703
 299.999433275
 299.999504163
 299.999715768
 299.999792302
 299.999730349
 299.999680455
 299.999606743
 299.999454937
 299.999312078
 299.999375543
 299.999464086
 299.999563595
 299.999700978
 299.999781994
 300.000031975
 300.000088961
 300.000092832
 300.000176632
 300.000192507
 300.000124984
 300.000119793
 300.000112853
 300.000094784
 300.000222341
 300.00035292
 300.000306953
 300.000102143
 299.999975594
 299.999989441
 299.999998873
 299.999819199
 299.999625267
 299.999649759
 299.999631736
 299.999508385
 299.999536331
 299.999606995
 299.999523771
 299.999555004
 299.999734743
 299.99985071
 299.999942239
 299.999892182
 299.999752445
 299.999596933
 299.999576597
 299.999819657
 300.000191396
 300.000577061
 300.000716503
 300.000501886
 300.000273628
 300.000248145
 300.000180184
 299.999968697
 299.999776465
 299.999636658
 299.999563233
 299.99950398
 299.999546028
 299.999810961
 299.999878088
 299.999679183
 299.999509547
 299.999491237
 299.999596801
 299.999964483
 300.000320107
 300.00026743
 300.000100469
 300.000333065
 300.000853166
 300.001030137
 300.000527611
 300.000083847
 300.000238803
 300.000256871
 299.999818108
 299.999669781
 299.999929913
 299.999856986
 299.99965098
 299.999852982
 300.000128177
 300.000105965
 299.999836612
 299.999691959
 299.999790088
 299.999873934
 299.999870115
 299.999796174
 299.999771548
 299.999811722
 299.999935361
 300.000051503
 300.000023783
 299.999976957
 299.999964331
 299.999844484
 299.999708484
 299.999715864
 299.999777182
 299.999752461
 299.999672521
 299.999786253
 299.999930379
 299.999854574
 300.000043395
 300.000172361
 299.999824852
 299.999620101
 299.999505225
 299.999458588
 299.999703187
 299.999907518
 300.000052759
 300.000210624
 300.000255644
 300.000251383
 300.000301233
 300.000379049
 300.000357857
 300.000275509
 300.000196755
 300.000079518
 300.000037874
 300.000050361
 299.999994081
 300.000039963
 300.00019211
 300.00025859
 300.000479113
 300.000569938
 300.000092067
 299.999739448
 299.999967955
 300.000323391
 300.000390859
 300.000310645
 300.00041642
 300.000425441
 300.000469594
 300.000563682
 300.00027739
 300.000094471
 300.000101241
 300.000015761
 299.999822058
 299.999712967
 299.999854899
 300.000007617
 299.999856859
 299.999793594
 299.999959071
 299.999992615
 299.999998617
 299.999956884
 299.999887011
 299.999875204
 299.999840852
 299.999782878
 299.99970191
 299.999677443
 299.999818209
 300.000080519
 300.000260597
 300.00031317
 300.000257936
 300.00019441
 300.000204104
 300.000079625
 299.99995029
 300.000038407
 300.000252676
 300.000361624
 300.00025276
 300.000151465
 300.000127228
 300.000221149
 300.000296018
 300.000199254
 300.000093772
 300.000104159
 300.00013582
 299.999438753
 299.998357631
 299.997963123
 299.998193213
 299.998663732
 299.999212283
 299.999503375
 299.999641291
 299.99965795
 299.9997534
 300.000115444
 300.000185992
 299.999940857
 299.999694914
 299.999356339
 299.99891481
 299.998821526
 299.999076304
 299.999296408
 299.999380075
 299.999588167
 299.999942486
 299.999957534
 299.999699993
 299.999627076
 299.999827557
 300.000116971
 300.000088201
 299.999938375
 299.999834168
 299.999617479
 299.999479131
 299.999412921
 299.999299151
 299.999242876
 299.999273554
 299.999168668
 299.999018779
 299.999071381
 299.999168721
 299.999194338
 299.999230366
 299.999178151
 299.998933273
 299.998473219
 299.998197928
 299.998178106
 299.998053986
 299.997996266
 299.998346989
 299.998409376
 299.997983499
 299.997500802
 299.997235139
 299.997564247
 299.99838071
 299.998943411
 299.999012162
 299.999078846
 299.999086775
 299.999189788
 299.999602987
 300.000104588
 300.000329795
 300.000345427
 300.000388494
 300.000450768
 300.000238568
 300.000178738
 300.000189121
 299.99995986
 299.999739294
 299.999512564
 299.999372418
 299.999300456
 299.999286838
 299.999422235
 299.999440473
 299.999285709
 299.999490494
 299.999591556
 299.999331889
 299.999391591
 299.999848018
 300.000014748
 299.999866198
 299.999848215
 299.999933796
 299.999981843
 299.999968779
 300.000013254
 300.000037767
 299.999911836
 299.999794238
 299.999857681
 299.999812916
 299.999569921
 299.999336007
 299.999292319
 299.999464886
 299.999775268
 299.999870512
 299.9997041
 299.999913383
 300.000180651
 300.000205701
 300.000290035
 300.000342853
 300.000233106
 300.000101755
 300.00006134
 300.000021747
 300.00004523
 300.000032416
 299.999990503
 299.999895048
 299.999863794
 299.999970681
 300.000126736
 300.000243751
 300.000264918
 300.0003733
 300.000482095
 300.000525618
 300.00043886
 300.000189279
 299.999975306
 299.999838518
 299.999742991
 299.999709167
 299.999658673
 299.999619772
 299.999581079
 299.99950285
 299.999581854
 299.999775543
 299.999740314
 299.999505742
 299.999418437
 299.999496366
 299.999594723
 299.999652266
 299.999684451
 299.999742815
 299.999817018
 299.999874625
 299.999940129
 300.000022472
 300.00018769
 300.00035165
 300.000317477
 300.000179652
 300.000251229
 300.000154485
 300.000156937
 300.000160205
 300.000179425
 300.000157696
 300.00009461
 300.000064453
 300.000017405
 300.000026407
 300.000017706
 299.99986978
 299.999819069
 299.999861549
 299.999846126
 299.999752686
 299.999625817
 299.99956866
 299.999506418
 299.999416938
 299.999489712
 299.999564064
 299.999583244
 299.999676714
 299.999737613
 299.999769806
 299.999844672
 299.999797769
 299.999620884
 299.999636344
 299.999801469
 299.999909523
 300.00006819
 300.000388863
 300.000620795
 300.000554877
 300.000386087
 300.000524994
 300.000710731
 300.000438446
 299.999983896
 299.999620921
 299.999347751
 299.999396366
 299.999594099
 299.999673909
 299.999765298
 299.999816507
 299.999859799
 299.999935141
 299.999943384
 300.000032406
 300.000271344
 300.000373731
 300.000334023
 300.000445563
 300.000656369
 300.000663918
 300.000451951
 300.000209277
 300.000281696
 300.000333216
 299.999992154
 299.999792311
 300.000026918
 300.000197555
 300.000071362
 300.000043128
 300.000112833
 300.000038163
 299.999845863
 299.999794397
 299.999865787
 300.000011198
 300.000124006