# vtk DataFile Version 3.0
array.1
ASCII
DATASET STRUCTURED_POINTS
DIMENSIONS 1 321 161
ORIGIN 1500.01 799.99 0.001
SPACING 0 1.25 1.25
POINT_DATA 51681
 FIELD attributes 2
T 1 51681 float
299.999481412
 299.999434901
 299.999454671
 299.999443973
 299.999462226
 299.999667092
 299.999948965
 300.000041228
 299.999985514
 299.999992973
 299.999868608
 299.999697605
 299.999675865
 299.999782017
 299.999864811
 299.999860294
 299.999755158
 299.999814492
 299.999974287
 299.99992453
 299.999906404
 299.999918287
 299.999787834
 299.999521661
 299.999547884
 299.999848349
 300.000078388
 300.000147276
 300.000168915
 300.000212682
 300.000170407
 300.000186723
 300.000136399
 300.000030968
 300.000074091
 300.000138504
 299.999921866
 299.999481098
 299.999244384
 299.999234225
 299.999213252
 299.999081065
 299.99908449
 299.999234839
 299.999350987
 299.999512491
 299.99962042
 299.999624599
 299.999668274
 299.999719969
 299.999775204
 300.000025192
 300.000399386
 300.000578402
 300.000511811
 300.000347763
 300.000255255
 300.000282053
 300.000114363
 299.999883072
 299.999838708
 299.999830432
 299.99970841
 299.999476994
 299.999467224
 299.99964781
 299.999668405
 299.999643462
 299.999710214
 299.999585436
 299.999442852
 299.999556454
 299.999615524
 299.999625902
 299.999955696
 300.00006874
 299.999866129
 299.999734068
 299.999705716
 299.999726226
 299.999622279
 299.999581945
 299.99959597
 299.999794479
 299.999957055
 299.999877351
 299.99971323
 299.999596565
 299.999649587
 299.999742394
 299.999770074
 299.999778261
 299.999805644
 299.999870662
 299.999865866
 299.999941911
 299.999718741
 299.999370944
 299.999659178
 299.999829615
 299.999677679
 299.999681051
 299.99971983
 299.999653889
 299.999638867
 299.999739654
 299.999884035
 299.999879476
 299.999786133
 299.999773903
 299.999860728
 300.000105247
 300.000036002
 299.999749954
 299.99957511
 299.999490082
 299.999633427
 299.999806494
 299.999754659
 299.999754891
 299.999946264
 300.000115193
 300.000060592
 299.999893353
 299.999827312
 299.99973588
 299.999672239
 299.999717163
 299.99978639
 299.999729438
 299.999636731
 299.999718571
 299.999773662
 299.999573821
 299.999514555
 299.999650679
 299.999725622
 299.99975511
 299.999771454
 299.999720304
 299.999704693
 299.999774439
 299.999761482
 299.999740066
 299.999800882
 299.999752396
 299.99962951
 299.999807698
 299.999981191
 299.999793752
 299.999698572
 299.999747454
 299.999784937
 299.999764741
 299.999709577
 299.999667172
 299.999695488
 299.999741882
 299.99967577
 299.999649444
 299.999672647
 299.999728474
 299.999793805
 299.999885528
 299.99991746
 299.99982581
 299.999707101
 299.999561767
 299.999514414
 299.999572676
 299.999686555
 299.999741767
 299.999746862
 299.99974186
 299.999729922
 299.999938374
 300.000085902
 299.999671673
 299.998981547
 299.998915166
 299.999298324
 299.999690503
 299.999991422
 299.999887495
 299.999548856
 299.999398883
 299.99947303
 299.999618213
 299.999849694
 300.000005932
 300.000088258
 300.000174099
 300.00017508
 300.000119503
 300.000108271
 300.000082346
 299.999987528
 299.99979528
 299.999652001
 299.99963886
 299.999771558
 300.000074749
 300.000064395
 299.999785704
 299.999757412
 299.999841937
 299.999623408
 299.999417754
 299.999470886
 299.999490886
 299.999479804
 299.999517133
 299.999747257
 299.999902639
 299.999881329
 299.999773935
 299.999510141
 299.999438701
 299.999646132
 299.999826703
 299.999871502
 299.999954967
 300.000083883
 300.00017162
 300.000182573
 300.000127773
 300.000326675
 300.000429439
 300.000041521
 299.999557729
 299.999283833
 299.999213392
 299.999243228
 299.999259219
 299.999060356
 299.99875666
 299.998545071
 299.998560723
 299.998642003
 299.998578423
 299.998540888
 299.998626824
 299.998860817
 299.998954847
 299.998978703
 299.998977626
 299.999007495
 299.999453416
 299.999850713
 299.999672377
 299.999328409
 299.999350418
 299.999578169
 299.999836989
 300.00004342
 300.000069214
 300.00006749
 300.000041617
 299.999931331
 299.999955498
 300.000058409
 300.000059438
 299.999952066
 299.999869241
 299.999936423
 299.999886608
 299.99975564
 299.999720189
 299.999638457
 299.999626878
 299.999697288
 299.999636085
 299.999636768
 299.99974498
 299.999806032
 299.999918154
 299.999914992
 299.99986505
 299.999831891
 299.999846901
 299.999864871
 299.999885045
 300.000259929
 300.000327991
 299.999956506
 299.999843959
 299.99995991
 300.000050137
 300.000114845
 300.000216386
 300.000213306
 300.000264186
 300.000166841
 300.00015088
 300.00036236
 300.000275932
 300.000001838
 299.99975439
 299.999578651
 299.999412571
 299.999243726
 299.99913528
 299.99916886
 299.999262835
 299.999416656
 299.999425665
 299.999342921
 299.999420285
 299.999515521
 299.999636259
 299.999713454
 299.999695633
 299.999732789
 299.999836575
 300.000012692
 300.000127022
 300.000247374
 300.000469288
 300.000542583
 300.000396071
 300.000216349
 299.99953239
 299.999565464
 299.999680388
 299.99970257
 299.999691786
 299.999878907
 300.000131092
 300.000158616
 300.000072225
 300.000143839
 300.000177234
 300.000036497
 299.999885961
 299.999875176
 299.999935608
 299.999994905
 299.99991541
 299.999831881
 299.999864353
 299.99987843
 299.999906034
 299.999915074
 299.999766281
 299.999535899
 299.999500248
 299.999660296
 299.999837341
 299.999935815
 300.00012343
 300.000175913
 299.999951192
 300.000040444
 300.000104047
 299.999800186
 300.000027504
 300.000809802
 300.000680655
 299.999647937
 299.999258296
 299.99927334
 299.999209447
 299.999215411
 299.999269531
 299.999376823
 299.999499611
 299.999745563
 299.99978463
 299.999650469
 299.999701497
 299.999782874
 299.999932969
 300.000361927
 300.000731418
 300.000579022
 300.000289734
 300.000189147
 300.000180303
 300.000176883
 299.999985836
 299.999830712
 299.999796332
 299.999812314
 299.999740899
 299.999480088
 299.9993798
 299.999537616
 299.99961849
 299.999629811
 299.999670921
 299.999535598
 299.999419713
 299.999521295
 299.999572855
 299.999592201
 299.999873653
 300.000025526
 299.999854355
 299.99968876
 299.999688651
 299.999806488
 299.999785241
 299.999657882
 299.999669799
 299.999897473
 299.999992354
 299.999895625
 299.999807603
 299.999756378
 299.999799401
 299.999800638
 299.999768078
 299.999825981
 299.999939431
 300.000095447
 300.000027542
 299.999905002
 299.999756953
 299.999645527
 299.999835465
 299.999839245
 299.999593949
 299.999481429
 299.999508385
 299.999542352
 299.999593196
 299.999675553
 299.999742242
 299.999730045
 299.999760185
 299.999863718
 299.999890628
 299.999922996
 299.999872497
 299.999795533
 299.999763126
 299.999717137
 299.999758446
 299.999879224
 299.999854038
 299.999759669
 299.99986377
 299.999904399
 299.999762412
 299.999706456
 299.999732355
 299.999571554
 299.999577887
 299.999850363
 299.999924815
 299.999757829
 299.999623335
 299.999716357
 299.999788158
 299.999665787
 299.999597451
 299.999657236
 299.999744253
 299.999722537
 299.999670394
 299.999682039
 299.999760794
 299.999833989
 299.999765814
 299.999718147
 299.999772411
 299.999747629
 299.999674371
 299.999802596
 299.999940727
 299.999854814
 299.999752629
 299.999713915
 299.999759397
 299.999812453
 299.999834285
 299.999832686
 299.999803763
 299.999728608
 299.999676341
 299.999764854
 299.999888115
 299.99996811
 300.000016915
 300.000052288
 300.000093592
 300.000003303
 299.999797395
 299.999622187
 299.99953757
 299.999578527
 299.999719988
 299.999710349
 299.999474027
 299.999357349
 299.999493756
 299.999529707
 299.999487715
 299.999248898
 299.998897954
 299.998981354
 299.999088354
 299.999205116
 299.999325508
 299.999237911
 299.999145842
 299.999188158
 299.999393624
 299.999583488
 299.999750567
 299.999921833
 300.000075319
 300.000179358
 300.000123718
 300.000081631
 300.000115888
 300.000132261
 300.000061912
 299.999858389
 299.999803508
 299.999864177
 299.999865396
 299.999941714
 300.00003399
 299.999935059
 299.999767026
 299.999733354
 299.999581927
 299.999388783
 299.999392292
 299.99947215
 299.999481499
 299.999524067
 299.999663131
 299.999572991
 299.999455532
 299.999517098
 299.999477264
 299.999412758
 299.999537836
 299.999775396
 299.999802913
 299.999760606
 299.9998202
 299.999976191
 300.000156979
 300.00012017
 300.000178201
 300.000306161
 299.999991494
 299.999560554
 299.999407219
 299.999349996
 299.999257451
 299.999303318
 299.999280114
 299.999129926
 299.9990707
 299.999056425
 299.999132985
 299.999037645
 299.998769692
 299.998703173
 299.998973525
 299.999231986
 299.999243392
 299.999135404
 299.999065873
 299.999208421
 299.99960836
 299.999773773
 299.99950307
 299.999377922
 299.999497163
 299.999623439
 299.999754416
 299.999876005
 300.000002041
 300.000034703
 299.999946159
 299.999982184
 300.000079346
 300.000084121
 300.000012317
 299.999966417
 299.99999422
 299.999890899
 299.999702258
 299.999581109
 299.999508666
 299.999566169
 299.99969499
 299.999711875
 299.999698932
 299.999624025
 299.999563948
 299.999720981
 299.999893479
 300.000014606
 299.999914543
 299.999751765
 299.999802905
 300.000026464
 300.00033958
 300.000366014
 300.000128309
 300.0000118
 299.999989738
 299.999958001
 300.000081765
 300.000294698
 300.000378348
 300.000468385
 300.000280078
 300.000101284
 300.00028389
 300.000258256
 300.00001297
 299.999795583
 299.999697791
 299.999505568
 299.999342155
 299.999182826
 299.999151847
 299.999414872
 299.999539457
 299.999450638
 299.999466627
 299.999604446
 299.999661939
 299.99976379
 299.99985741
 299.999806134
 299.999776334
 299.999870955
 300.000059016
 300.000162436
 300.000138211
 300.00020385
 300.00029863
 300.000233822
 300.000142158
 299.999666098
 299.999712839
 299.999874198
 299.999954545
 299.999960091
 300.000135306
 300.00032354
 300.000258849
 300.000123386
 300.000205645
 300.000421932
 300.000409018
 300.000176645
 300.000015218
 299.99998475
 300.000083395
 300.000067448
 299.99981157
 299.999626149
 299.999645197
 299.999671912
 299.999646204
 299.999542645
 299.999391707
 299.999323946
 299.999400453
 299.999599262
 299.999810085
 300.000072881
 300.000184306
 300.00004033
 300.000067843
 300.000169172
 300.000070997
 300.000382415
 300.001220098
 300.001041893
 299.999911213
 299.999455804
 299.999308605
 299.999222467
 299.999395433
 299.99951091
 299.999638293
 299.999721987
 299.999832755
 299.99988512
 299.999709485
 299.999656541
 299.999758078
 299.999955313
 300.000418592
 300.000557994
 300.000214607
 300.000206375
 300.000370594
 300.000186648
 299.999845002
 299.999586099
 299.999668204
 299.999743838
 299.999675927
 299.999684971
 299.999460264
 299.999208628
 299.999304612
 299.999455368
 299.999584309
 299.999714509
 299.999658406
 299.999577204
 299.999567513
 299.999515772
 299.999553373
 299.999772688
 299.999865834
 299.999765078
 299.99969479
 299.999722752
 299.999855292
 299.99991467
 299.999825315
 299.999876112
 299.999970838
 299.999965963
 299.999966668
 299.999947416
 299.999880975
 299.99985397
 299.999860885
 299.999885077
 299.999947453
 300.000068895
 300.000278887
 300.000175415
 299.999898933
 299.999837661
 299.999903316
 299.999945263
 299.999754734
 299.999422297
 299.999239522
 299.999283997
 299.999425711
 299.999586319
 299.999674149
 299.99964267
 299.999583992
 299.999605279
 299.999733159
 299.999833249
 299.999872959
 299.999900316
 300.000035389
 300.000161484
 300.000131835
 300.000093721
 300.00018782
 300.00018783
 300.000019359
 299.999884662
 299.999734585
 299.999818272
 299.999915705
 299.999882738
 299.99980678
 299.999941066
 300.000260474
 300.000272651
 300.00002899
 299.999779121
 299.999769938
 299.999803586
 299.999796816
 299.999812555
 299.999802926
 299.999837841
 299.999763719
 299.99966519
 299.999716795
 299.999822778
 299.9998947
 299.999813148
 299.999686952
 299.999676213
 299.999712628
 299.999742077
 299.999761562
 299.999804506
 299.999832018
 299.999741546
 299.99969169
 299.999777462
 299.99986349
 299.999949894
 299.999991381
 299.999949969
 299.999811118
 299.999734954
 299.999888484
 300.000141542
 300.000282416
 300.000276015
 300.000210585
 300.000258656
 300.000251643
 300.000021766
 299.999784345
 299.999629478
 299.999607003
 299.99974891
 299.999622931
 299.999014112
 299.998606591
 299.998850965
 299.99881798
 299.998777386
 299.999034432
 299.999176171
 299.99942263
 299.999310703
 299.998967473
 299.99871389
 299.998597467
 299.998754377
 299.999121179
 299.999449356
 299.999471482
 299.999548642
 299.999824251
 299.999971447
 300.000012136
 299.999991664
 300.000064444
 300.00011923
 300.000168576
 300.000196205
 300.000086526
 300.000112555
 300.000174593
 300.000084935
 299.999908829
 299.999914691
 300.000017622
 299.999786138
 299.999585731
 299.999536729
 299.999368885
 299.99931538
 299.999488486
 299.999556386
 299.999594493
 299.999567867
 299.99904726
 299.998691834
 299.99899678
 299.999344703
 299.999372527
 299.999282074
 299.999519996
 299.999643015
 299.999503704
 299.999489562
 299.999640762
 299.999917494
 299.99997195
 299.999914437
 300.000058872
 299.999999453
 299.99965125
 299.99946704
 299.999462353
 299.99937741
 299.999501896
 299.99960778
 299.999543044
 299.999700073
 299.999744193
 299.999552213
 299.999317254
 299.999078437
 299.998965715
 299.999233658
 299.99961666
 299.999519529
 299.99930909
 299.999239767
 299.999297054
 299.999521584
 299.999809588
 299.999831773
 299.99953541
 299.999491659
 299.999495579
 299.99953267
 299.99968772
 299.99991878
 300.000045436
 299.999974315
 299.999977584
 300.000076533
 300.00012334
 300.000055376
 300.000009894
 300.000037666
 299.999958708
 299.999771551
 299.999591446
 299.999494099
 299.999574252
 299.999725779
 299.999769588
 299.999730746
 299.999458354
 299.999330831
 299.999633782
 299.999956257
 300.000120001
 300.000011269
 299.999776017
 299.999844889
 300.000153992
 300.000339173
 300.000405491
 300.000370229
 300.000313859
 300.000175967
 300.000064636
 300.000251288
 300.000543264
 300.000632382
 300.000633766
 300.000520886
 300.000257038
 300.000194747
 300.000149848
 300.000013806
 299.99993487
 299.999904555
 299.99970359
 299.999542989
 299.999428587
 299.999334996
 299.999516167
 299.999534447
 299.999348515
 299.999408323
 299.999649035
 299.999769227
 299.99984827
 299.999882884
 299.999794071
 299.999754684
 299.999815521
 299.999921778
 299.999959397
 299.999841183
 299.999846345
 299.999930485
 299.999897504
 299.999925288
 299.999744104
 299.999747012
 299.999827708
 299.999932775
 300.000021494
 300.000157176
 300.000269311
 300.000206505
 300.000116506
 300.000156333
 300.000371288
 300.000555802
 300.000478957
 300.000245471
 300.000091503
 300.00010876
 299.999952266
 299.999653945
 299.999556461
 299.999556701
 299.999467465
 299.999441379
 299.9994657
 299.999461816
 299.999517476
 299.999558862
 299.999756225
 300.000035992
 300.000320078
 300.000571625
 300.000430276
 300.00012812
 300.000242567
 300.000544384
 300.000787017
 300.000952834
 300.000515256
 299.999869206
 299.999558617
 299.999429222
 299.999465736
 299.999538932
 299.999601451
 299.999753863
 299.999802119
 299.999679819
 299.999744065
 299.999763956
 299.99967177
 299.999704429
 299.999896156
 300.000193618
 300.00014453
 300.000044494
 300.000470492
 300.000763272
 300.00037501
 299.999761623
 299.999319311
 299.999686825
 300.000081672
 299.999781307
 299.999568387
 299.999253271
 299.998992977
 299.999183128
 299.999428419
 299.999617567
 299.99975867
 299.999732371
 299.999674789
 299.999653051
 299.999587028
 299.999607246
 299.999716277
 299.999701012
 299.999705195
 299.999771947
 299.999775845
 299.999863251
 299.999981591
 300.000029197
 300.000052567
 299.999953815
 299.999954823
 300.000022861
 299.99990486
 299.999827805
 299.999873639
 299.999944905
 299.999987114
 299.999964869
 299.999978398
 300.000082962
 300.000033639
 299.999851591
 299.999795495
 299.999806685
 299.99976424
 299.999613992
 299.999412871
 299.999355979
 299.999529501
 299.99970313
 299.999822287
 299.999903352
 299.999888301
 299.999784686
 299.999616187
 299.999573126
 299.99966392
 299.999732823
 299.999794628
 299.9999589
 300.000131807
 300.000194988
 300.000254707
 300.000350672
 300.000262033
 300.000065965
 299.999850017
 299.999808387
 300.00025652
 300.000419229
 300.000262992
 300.000275112
 300.0003288
 300.000283463
 300.000238909
 300.000217008
 300.000014244
 299.999864254
 299.999775736
 299.999765798
 299.999885441
 299.999899191
 299.999847752
 299.999817774
 299.999782226
 299.999827465
 299.999857995
 299.999889628
 299.999912371
 299.999826239
 299.999725099
 299.999677848
 299.99971521
 299.999684631
 299.999608508
 299.999610732
 299.999571609
 299.99959283
 299.999730738
 299.999861892
 299.999964844
 300.000007819
 299.99997181
 299.999892771
 299.999883699
 300.000052848
 300.000275098
 300.000315067
 300.000217498
 300.000199347
 300.000352423
 300.00042557
 300.000268558
 299.999983691
 299.999698858
 299.999635629
 299.999635498
 299.999266352
 299.998472831
 299.997930217
 299.998194135
 299.998438271
 299.998618302
 299.999020815
 299.999248252
 299.999664016
 299.999902697
 299.999492025
 299.999104801
 299.998778189
 299.99863333
 299.998968809
 299.999219318
 299.999074201
 299.999210674
 299.99964991
 299.999794794
 299.999868698
 299.999977641
 300.000075348
 300.000087154
 300.000120622
 300.000197912
 300.000164732
 300.000203552
 300.000220113
 300.000162893
 300.000003333
 299.999781442
 299.999820666
 299.999764184
 299.999599602
 299.999465998
 299.999310925
 299.999340362
 299.99956192
 299.999659616
 299.999592401
 299.99936885
 299.998611095
 299.998161388
 299.998621523
 299.999171515
 299.999249687
 299.998829814
 299.998624616
 299.998841619
 299.998786666
 299.99881968
 299.999227884
 299.999612593
 299.999837873
 299.999853186
 299.999854969
 299.99988229
 299.999701892
 299.999520699
 299.999619376
 299.999763534
 299.99994401
 300.000051942
 300.000074564
 300.000106625
 300.000052725
 299.999631918
 299.999282519
 299.999279562
 299.999330131
 299.99947796
 299.999664665
 299.999663231
 299.999657344
 299.999595316
 299.999664708
 299.999736325
 299.999747031
 299.9999688
 299.999944039
 299.999871814
 299.999704941
 299.99955404
 299.999581638
 299.999801554
 299.999983353
 299.999970693
 299.999996763
 300.000077542
 300.00012178
 300.000035691
 299.999966411
 300.000059477
 300.000013591
 299.999741005
 299.999525634
 299.999495689
 299.999583952
 299.999659975
 299.999698671
 299.999679414
 299.999581035
 299.999576398
 299.99982707
 300.000036252
 299.999982185
 299.999939244
 299.999894934
 299.999925507
 300.000035492
 300.000188933
 300.000370969
 300.000368963
 300.000361114
 300.000373821
 300.000350254
 300.000413461
 300.000568255
 300.000602469
 300.000595672
 300.000592181
 300.000363678
 300.000156278
 300.000056153
 299.99996951
 299.999942976
 299.999947874
 299.999850951
 299.999672447
 299.999586507
 299.999525679
 299.999502637
 299.999512993
 299.9993826
 299.999276341
 299.999428065
 299.999653691
 299.999806066
 299.999767131
 299.999569908
 299.999460598
 299.999441756
 299.999396293
 299.99933281
 299.999342158
 299.999471451
 299.999569605
 299.999686899
 299.99983735
 299.999760898
 299.999796066
 299.999858166
 299.999947076
 300.000029573
 300.000074887
 300.000143867
 300.000114061
 300.000103589
 300.000209113
 300.000369585
 300.000517314
 300.00046657
 300.000282548
 300.000148783
 300.000131225
 299.999874653
 299.999583905
 299.999608189
 299.999585083
 299.999443458
 299.999453267
 299.99953622
 299.999686322
 299.999780482
 299.999668458
 299.999851179
 300.000179284
 300.000400344
 300.000531544
 300.00028474
 299.999911034
 299.999959848
 300.000238531
 300.000583925
 300.000695826
 300.000158728
 299.999599719
 299.999402854
 299.999495921
 299.999613117
 299.999539086
 299.999582409
 299.999698548
 299.999747622
 299.999749219
 299.999838843
 299.999967199
 299.999879794
 299.999745829
 299.999960605
 300.000300056
 300.000287009
 300.000179088
 300.00034133
 300.000571067
 300.000505666
 300.000101285
 299.999714417
 300.000046708
 300.00036024
 300.000086499
 299.999763322
 299.999290296
 299.99911651
 299.9994163
 299.999637427
 299.999728825
 299.99980781
 299.999743157
 299.999662427
 299.999671114
 299.999647651
 299.999678197
 299.999713106
 299.999693906
 299.999688327
 299.99973394
 299.999792606
 299.999934327
 300.000092529
 300.000113077
 300.000141339
 300.000104971
 300.000003507
 299.999924261
 299.999835772
 299.999879222
 299.999977509
 299.999993225
 300.000008004
 299.999945432
 299.999793515
 299.999762034
 299.999838131
 299.999761081
 299.999655662
 299.999638031
 299.999581148
 299.999597042
 299.999655379
 299.999746407
 299.999948821
 300.000083071
 300.000124936
 300.000192568
 300.000202536
 300.000068271
 299.999892658
 299.999796532
 299.999739398
 299.999680307
 299.999690146
 299.999784494
 299.999947951
 300.000105692
 300.000231601
 300.000302697
 300.000086537
 299.99979709
 299.999725793
 299.999929694
 300.000369563
 300.000470526
 300.000375752
 300.000360302
 300.000383746
 300.000311646
 300.000132867
 300.000148394
 300.000139435
 299.99999303
 299.999800681
 299.999712785
 299.999819024
 299.999926367
 299.99988508
 299.999819936
 299.999838111
 299.999948807
 299.99998876
 299.99998872
 300.000021588
 300.000023206
 299.999949629
 299.99976949
 299.999730944
 299.99968747
 299.999557192
 299.999563732
 299.999600456
 299.999677658
 299.999870903
 300.000052212
 300.000101761
 300.000103955
 300.000027581
 299.999936129
 300.000031645
 300.000255978
 300.000374549
 300.000249502
 300.000127759
 300.000232325
 300.000424748
 300.000425442
 300.000273945
 300.000016099
 299.999756539
 299.999759207
 299.999397507
 299.998612079
 299.997989892
 299.997846016
 299.998306232
 299.998742916
 299.998805581
 299.998907183
 299.999001143
 299.99944864
 300.000026374
 299.999916907
 299.999649958
 299.999237263
 299.99878323
 299.998682772
 299.998700631
 299.998705687
 299.999085104
 299.999562948
 299.999699848
 299.999823849
 299.99983349
 299.999863261
 300.000061668
 300.000144392
 300.000140348
 300.000043492
 300.000017474
 300.000032456
 299.999998194
 299.9999037
 299.99967332
 299.999578866
 299.999610968
 299.999553595
 299.999344209
 299.999244959
 299.999333455
 299.99950036
 299.999600141
 299.999478347
 299.99924469
 299.99872433
 299.998409721
 299.998634668
 299.998816843
 299.998748518
 299.998433756
 299.997883271
 299.997826122
 299.997769674
 299.997791013
 299.998477073
 299.999151074
 299.999683874
 299.9999006
 299.999828288
 299.999664088
 299.999569919
 299.999655142
 299.999890124
 300.00010932
 300.000277344
 300.000424251
 300.000515759
 300.000316405
 300.000124009
 300.000006893
 299.999782664
 299.999598981
 299.999549641
 299.999505794
 299.999472796
 299.999730841
 299.999905309
 299.999763012
 299.999575532
 299.999588649
 299.999651832
 299.999821972
 300.000066074
 300.000072416
 299.999893805
 299.999663841
 299.999577409
 299.999736102
 299.999942472
 300.000023513
 300.000068165
 300.000141286
 300.000139223
 299.999983522
 299.99996438
 300.000132517
 299.999995344
 299.999579905
 299.999344836
 299.999394062
 299.999513987
 299.999602271
 299.999722065
 299.999665952
 299.999655815
 299.999795721
 299.999935532
 300.000016283
 299.999926176
 299.999840392
 299.99983016
 299.999845604
 299.999874837
 300.000034035
 300.000221191
 300.00019419
 300.000112978
 300.00018388
 300.000290407
 300.000345686
 300.000377133
 300.000439273
 300.000570448
 300.000521404
 300.000308351
 300.000184882
 300.000055011
 299.999906028
 299.9998293
 299.999838485
 299.999784962
 299.999609855
 299.99950486
 299.99951603
 299.999579274
 299.999706353
 299.999691364
 299.999460151
 299.999362007
 299.999514184
 299.999719197
 299.999745237
 299.999571592
 299.999420568
 299.999419173
 299.999367242
 299.999282552
 299.999326045
 299.999422496
 299.999548854
 299.99968003
 299.99982582
 299.999767948
 299.999845595
 299.99995184
 300.000028278
 300.000041228
 300.000022819
 300.000071747
 300.000043302
 300.00001966
 300.000163194
 300.000278173
 300.000245022
 300.000087941
 299.999988945
 299.999952424
 299.99997387
 299.999885235
 299.999650753
 299.999568033
 299.999486976
 299.999446384
 299.999582238
 299.99962357
 299.999615685
 299.999665135
 299.999701746
 299.999821003
 300.000019954
 300.000046799
 299.999955396
 299.99988611
 299.999903379
 300.000015956
 300.000231874
 300.000604287
 300.000583902
 300.000024118
 299.999608671
 299.999654782
 299.999845915
 299.999795339
 299.99955428
 299.999505747
 299.999547912
 299.999612351
 299.99977812
 299.99998876
 300.00015549
 300.000088043
 299.999909038
 299.999963918
 300.000129711
 300.000108096
 300.000074157
 300.000153627
 300.000407701
 300.000580847
 300.000309663
 300.000035135
 299.999987822
 300.000073664
 300.000273871
 300.000096884
 299.999627925
 299.999540672
 299.999753885
 299.999761438
 299.999716767
 299.999846801
 299.999803766
 299.999668146
 299.999681154
 299.9996983
 299.999734868
 299.999794589
 299.999816521
 299.999732741
 299.999771087
 299.999954461
 300.000059881
 300.000141917
 300.000120868
 300.000136739
 300.000145935
 299.999955668
 299.999821197
 299.999842114
 299.999885181
 299.999866734
 299.999857436
 299.999951196
 299.999925413
 299.999732062
 299.999736479
 299.999946953
 299.999932035
 299.999820707
 299.999664003
 299.999490183
 299.999625961
 299.999832591
 300.000005192
 300.000168276
 300.000203872
 300.000205246
 300.000264259
 300.000248761
 300.000113915
 300.00002547
 299.999999003
 299.999944222
 299.999912626
 299.999912184
 299.99988631
 299.999931263
 300.000065214
 300.000226819
 300.000356609
 300.000181087
 299.999876377
 299.999861654
 300.00009667
 300.000395279
 300.000442128
 300.00046685
 300.000491754
 300.00048511
 300.00055752
 300.000441324
 300.000299516
 300.000221881
 300.000067129
 299.999871948
 299.999740477
 299.999755376
 299.999957783
 300.000045249
 299.999905681
 299.999899226
 300.000043865
 300.00007091
 300.000062522
 300.000035803
 300.000005593
 299.999979348
 299.999852229
 299.999794483
 299.999732702
 299.999689471
 299.999758365
 299.999837599
 300.000004105
 300.000269419
 300.000386662
 300.00029562
 300.000240095
 300.000181001
 300.000071504
 300.000104127
 300.000257336
 300.000321853
 300.00022912
 300.000195789
 300.00031331
 300.000392088
 300.000280901
 300.000091666
 299.999947795
 299.999897868
 299.999862602
 299.999164216
 299.998116985
 299.997759881
 299.998196024
 299.99885325
 299.999264824
 299.999263773
 299.999337064
 299.99931403
 299.999367793
 299.999838967
 300.000055727
 299.999979659
 299.999744032
 299.999347939
 299.998902916
 299.998760441
 299.998963884
 299.999328494
 299.999577966
 299.999771429
 300.000008983
 299.999948334
 299.999889063
 300.000096905
 300.000224022
 300.000284816
 300.000184522
 299.99997337
 299.999846958
 299.999817492
 299.999731917
 299.999524178
 299.999383876
 299.999366109
 299.999266059
 299.999085799
 299.999083315
 299.999188556
 299.999262181
 299.999246091
 299.999179748
 299.999194063
 299.999079891
 299.998812572
 299.998670414
 299.998721255
 299.998722584
 299.998786354
 299.998595165
 299.998204003
 299.997814527
 299.997469584
 299.997724399
 299.998277945
 299.9989606
 299.999460047
 299.999597043
 299.999536906
 299.999478512
 299.999675457
 300.000002223
 300.000190973
 300.00020716
 300.000196964
 300.000230444
 300.000172573
 300.000015167
 300.000022352
 299.999980858
 299.999788074
 299.999647199
 299.99948257
 299.999320027
 299.999430671
 299.999519778
 299.999505753
 299.999314877
 299.999262389
 299.999497091
 299.999596321
 299.999715486
 299.99982253
 299.999935605
 299.999902164
 299.999763195
 299.99979233
 299.999948323
 300.00003485
 300.000056787
 300.000106305
 300.000085786
 299.999951612
 299.999925419
 300.000007605
 299.999821287
 299.999486857
 299.99935594
 299.999409504
 299.999521302
 299.999656089
 299.999796615
 299.99974076
 299.999699752
 299.999849824
 299.99998712
 300.000099464
 300.000133349
 300.000024339
 299.999938986
 299.999914623
 299.999876994
 299.999923487
 300.000020721
 299.999997152
 299.999864326
 299.999847151
 299.999995173
 300.000152133
 300.000196429
 300.000271275
 300.000409035
 300.000454345
 300.000446946
 300.000350192
 300.000139639
 299.999981407
 299.999870027
 299.999777751
 299.999743726
 299.999630466
 299.999527419
 299.999523623
 299.999543313
 299.999695879
 299.999842334
 299.999685933
 299.999427588
 299.9993749
 299.999484979
 299.999634476
 299.999664735
 299.999643673
 299.999770912
 299.999829332
 299.999856576
 299.999916072
 299.999910872
 299.999999647
 300.000006095
 299.999955399
 299.999930152
 299.999996488
 300.000056972
 300.000113098
 300.000084834
 300.000058426
 300.000059565
 300.000007427
 300.000020808
 300.000085684
 300.000019417
 299.999937573
 299.999873628
 299.999821791
 299.999777956
 299.999761769
 299.99972958
 299.999587072
 299.999498008
 299.999426152
 299.999477269
 299.999753919
 299.999729617
 299.999471527
 299.999471332
 299.999634945
 299.99967355
 299.99969684
 299.999748677
 299.999755662
 299.999802814
 300.000089803
 300.000374585
 300.000426952
 300.000548718
 300.000547486
 300.000316114
 300.000010111
 300.000120298
 300.00045255
 300.00029203
 299.999865911
 299.999548187
 299.99945092
 299.999539002
 299.999667655
 299.999819872
 299.999971091
 300.000033412
 300.000014807
 299.999936122
 299.999872766
 299.999917917
 300.000111889
 300.000325601
 300.000509675
 300.000614857
 300.00047009
 300.00022275
 300.000001777
 300.000194127
 300.00055953
 300.000265946
 299.99982863
 299.99979974
 299.999948032
 299.999904312
 299.999779708
 299.999815778
 299.999828594
 299.999767372
 299.999744964
 299.999801161
 299.999844441
 299.999906327
 299.999964026
 299.999903539