# vtk DataFile Version 3.0
array.1
ASCII
DATASET STRUCTURED_POINTS
DIMENSIONS 1 321 161
ORIGIN 1500.01 799.99 0.001
SPACING 0 1.25 1.25
POINT_DATA 51681
 FIELD attributes 1
U 3 51681 float
3.65453001658 	0.214950176036 	3.42528644487e-05
 3.59900710411 	0.179834599332 	-0.000131502614153
 3.49439887756 	-0.00571365619907 	-6.12758854568e-05
 3.34592955855 	-0.243233071676 	5.72226957223e-05
 3.43784806905 	-0.48505419919 	0.000141677842837
 3.77694902602 	-0.625856012513 	-6.94763028948e-05
 4.01140543223 	-0.673085796872 	-5.44544059987e-05
 3.97234163113 	-0.517765745581 	0.000193873883826
 4.00906522854 	-0.189841172881 	0.000165012847188
 4.08999504774 	0.254981373524 	-0.000164782151034
 3.64706578383 	0.636883156527 	-0.000232695272412
 3.41873430463 	0.792577619116 	-0.000110275208758
 3.49599986104 	0.685784447375 	-0.000169541663217
 3.58350554239 	0.481239561843 	0.00010494543176
 3.68888208949 	0.190234457901 	6.77991032305e-05
 3.35519060705 	-0.182538082607 	-0.000185502485885
 3.37007614775 	-0.247617684121 	-0.000284444313712
 3.75804250049 	0.217001137547 	0.000148108449978
 3.7980954468 	0.483055668802 	-8.50154480156e-05
 3.93152159274 	0.194364834315 	-0.000294606599827
 4.08698163159 	0.317081724361 	-0.00040026018939
 3.66312427416 	0.488657636937 	-4.60906846044e-05
 3.29191938603 	0.062089728244 	7.63610603487e-05
 3.4589453213 	-0.260324680014 	-6.11830933915e-05
 3.70516130882 	-0.245552475147 	-2.43110783046e-05
 3.75612267643 	-0.0251781506895 	-0.000249573737086
 3.91832118683 	0.058030465406 	-0.00024403546287
 4.42884544081 	0.180887752838 	0.000346307307525
 4.67577897132 	0.65422408332 	0.000183922868584
 4.61752175944 	0.899586405522 	-2.3552328386e-05
 4.74747248142 	0.769746306864 	5.24187417199e-05
 4.75053974815 	0.766935054559 	-0.000619875051543
 3.74504942924 	0.633932947584 	-0.000158113139252
 2.58319637295 	0.498587299513 	0.000302417867525
 2.35579492739 	0.411024141105 	0.000510844745632
 2.45994334339 	0.276609231252 	0.000296256720578
 2.57518208117 	0.321594969995 	-0.000255610671747
 2.67480724134 	0.123834836382 	-0.000321891593907
 2.69062821629 	-0.261734525634 	0.000235545753105
 3.00669199106 	-0.413862659323 	0.000286479781788
 3.2283231398 	-0.231798036865 	-1.04253841204e-05
 3.03586121066 	0.175766771969 	-0.000301008872747
 3.10427099515 	0.537437906275 	-0.000133973244899
 2.97724817751 	0.707533384938 	-0.000457790471251
 2.34766645216 	1.03931600954 	-0.000266657553944
 2.04009369066 	1.32040548099 	-0.000221070634987
 2.22064892776 	1.19346702746 	4.22891745268e-05
 2.20538684982 	1.05872903309 	0.000160666456649
 1.97613972969 	0.828116177823 	0.000145908224
 2.60717369243 	0.686749464561 	8.5162190496e-05
 2.89353336662 	0.807717861429 	-5.11761261997e-05
 2.00806392802 	0.517410735446 	-5.62998191319e-06
 1.9631717485 	0.299386716704 	0.000289471490267
 1.94857882955 	0.592562298186 	-0.000251904850319
 2.11561974008 	0.631267489869 	-0.00026806626406
 2.86892985814 	0.681999630335 	6.465834292e-05
 3.15077339068 	0.903020629593 	2.02617228912e-05
 3.88810204452 	0.905460740559 	1.30382583517e-05
 3.73982394175 	0.747032535211 	-7.21573385731e-05
 2.74549944047 	0.841759320648 	-0.000133194202778
 2.84080775194 	0.659157016949 	-0.000373007523202
 3.73069830167 	0.0825543219992 	0.000178310400876
 4.66781458832 	-0.0691976244296 	0.000496100833654
 4.9823099966 	-0.099039623003 	0.000104742145214
 4.63104174576 	0.26696966095 	0.000116304132282
 4.19109345444 	0.469047985356 	-0.000208984367799
 4.15447113707 	0.130953763429 	-2.78962275366e-05
 4.38436816687 	-0.246905467322 	0.000293935166848
 3.95420147728 	-0.233496913786 	0.000267432762626
 3.2925550667 	-0.0770057275972 	0.000286010072759
 3.46648046547 	-0.0940360202817 	0.000123293065919
 3.21042642594 	0.278896657875 	1.90294101658e-05
 2.44880453816 	0.33776978075 	0.000299999092344
 2.54830682445 	-0.105277686349 	0.000127882319119
 3.52555569839 	-0.451790996475 	-4.10650475395e-05
 4.72585212274 	-0.191618601455 	8.68173738255e-05
 4.83897171102 	0.0936074711594 	-0.000793409606096
 3.93219067042 	-0.0078961760043 	-0.000762986511648
 3.43768851946 	0.182579327371 	3.29297284879e-05
 3.56607889707 	0.496426877499 	0.000119733808976
 3.6414727796 	0.558007704005 	-0.000174871131482
 3.76045186181 	0.348479151829 	6.63828725296e-05
 4.03089116883 	0.512496801023 	-0.000356085649014
 4.01531245376 	0.928453463189 	-0.000368829398473
 3.68846397117 	0.726803509347 	0.000221317081596
 3.58126397282 	0.128702301646 	0.000534940192169
 3.61930735196 	-0.113615323628 	3.23432387099e-05
 3.48017068826 	-0.28443040459 	-4.37741587012e-05
 3.91408043786 	-0.339638056132 	-0.000211752892606
 4.13120348299 	0.0987634208552 	-0.000757520806212
 3.69859333021 	0.31002988779 	0.000249062801746
 3.48417424278 	0.570992125312 	0.000289219572316
 3.22171738601 	0.669353726399 	-0.000317406148157
 3.35927573092 	0.0128231964256 	-0.000237976217554
 3.84841793481 	0.00872937246708 	3.74358321307e-05
 4.44957553182 	0.0787002823974 	0.000192493357046
 4.61734685974 	0.240440858424 	-0.000763157955249
 3.76223864524 	0.728888303607 	0.000388221581836
 3.50597547693 	0.575214341996 	0.000209473468515
 3.79844735612 	0.137939956296 	-0.000217119326649
 3.55596389304 	-0.138699295351 	-0.000246350883466
 3.13667585673 	-0.197848899096 	-0.000182721334383
 2.97346192793 	-0.261611137419 	-9.3723558821e-05
 3.28599657854 	-0.128938298063 	-9.25066959049e-05
 3.47463253747 	-0.0991727098102 	-0.000320282188837
 3.2518810954 	-0.411877898826 	-0.000137272565943
 3.13731267798 	-0.598951799636 	0.000134294646679
 3.4104796725 	-0.330001274586 	-5.58114581566e-05
 3.58141213467 	-0.154981840079 	-0.000288388155715
 3.47189777455 	-0.285810032454 	-0.000206284338722
 3.55599833894 	-0.283522873879 	-0.000245291490657
 3.16926173595 	-0.121824102616 	-0.00038292968746
 2.56597710577 	-0.0366461853046 	9.74254157408e-05
 2.80531441423 	-0.0400355726859 	0.000394983994175
 3.25179298384 	-0.102997024264 	-0.000115631484277
 3.33159442596 	-0.198720926718 	-0.000182040930832
 3.18639898235 	-0.156937338137 	-0.000249771598025
 3.45994165063 	-0.170000070862 	8.87675372647e-05
 3.9045244 	-0.185148208588 	-0.000609863206341
 3.29210864333 	0.157745625377 	-0.000719781774086
 2.44337800183 	0.283002057313 	-2.1929180139e-05
 2.28337148727 	0.147500568353 	0.000303867687934
 2.84254447871 	0.164503802629 	0.000162664069975
 3.44860689649 	0.198154688766 	-0.000650986426792
 3.16682430537 	0.368944520194 	-0.000638699524113
 3.07404490871 	0.343408260053 	9.90949467609e-05
 3.69204834887 	0.408946164829 	-0.000479974595251
 3.71878934463 	0.487852389432 	-0.000174027552168
 3.12010366456 	0.0529488949702 	-0.000105370158787
 3.01936921435 	-0.30555889913 	0.000178443422226
 2.95075655866 	-0.311493526815 	-0.000104511662746
 2.81540172668 	-0.522359109032 	0.000168567305335
 3.40739004763 	-0.589967560537 	8.09277849341e-05
 3.74805826973 	0.054371776107 	-0.00031321593166
 3.41490227251 	0.520550905363 	0.000128841617124
 3.25552995009 	0.48949397952 	0.000282617821492
 3.30689153573 	0.354100810382 	0.000263043096058
 3.30902242089 	0.386417838913 	-2.47310429757e-05
 2.95106222483 	0.359037257058 	-0.000297007655252
 2.78954380006 	0.428919629531 	-0.000150822900237
 2.98583597379 	0.580367873419 	-0.000360008953715
 3.05276460796 	0.385705669051 	-0.000223347508348
 2.81798345996 	0.346099415609 	5.31238683045e-05
 2.4290587467 	0.259502617314 	2.33923150192e-05
 2.04121634088 	0.186436732037 	0.000125286226993
 1.82989142125 	0.0995408107248 	8.02483544488e-05
 2.43383039235 	0.150703285304 	4.16991715987e-05
 3.19589889076 	0.261934380271 	-0.000276663544141
 3.61492076959 	0.091015953904 	-0.000149512987189
 3.52983746717 	0.0804567916249 	-0.000370196208542
 2.5723786809 	0.197879698991 	-0.000471720849458
 2.00711665415 	0.149096459859 	-2.03081434646e-05
 2.45316497695 	0.095523572492 	0.000101598988922
 2.87927485663 	0.0391169152046 	-4.51866885556e-05
 3.04645020447 	0.0798627033261 	-0.000192640499844
 3.04861940922 	-0.00153264772932 	-0.000175765987677
 3.37833361603 	-0.132429758661 	-0.000266823243625
 3.65491972861 	-0.0831840719214 	-0.000371889063182
 3.31071891338 	-0.0852072498031 	-0.000128230088093
 3.02816733828 	-0.0151030792631 	-4.64967196822e-05
 3.00967407096 	-0.051041045723 	-5.73150050943e-05
 3.09912679797 	-0.059690965939 	-0.000154285128685
 3.33617468188 	0.219482782106 	-9.66726419225e-05
 3.14085693028 	0.575032639667 	-3.57971261277e-05
 3.32061662079 	0.84128028882 	0.000320904315413
 3.75436223745 	1.06606372651 	-0.000176622375778
 3.18166309353 	1.01440529488 	-2.32224982106e-05
 2.8421653315 	0.90262036084 	0.000311178611481
 2.9370337856 	0.463119775002 	0.000324508653897
 2.82320670381 	-0.159667686706 	0.000160410219024
 2.60409473306 	-0.365935777996 	-0.000220482520885
 2.22302086403 	-0.321354039135 	-0.000297083717564
 1.77217872504 	-0.32867958849 	-0.000286596313963
 2.21808991686 	-0.14564838198 	4.27697306144e-06
 3.05808193329 	0.338120301313 	-6.45551376508e-05
 2.77082182223 	0.216197483809 	-0.000169912875537
 2.02155790899 	-0.134547598331 	-5.59955590043e-05
 2.36882766818 	-0.245284440209 	-0.000105792448711
 4.06533284111 	-0.131436234776 	0.000361017410336
 4.47441790475 	0.259118353788 	0.000188270801978
 3.16351768728 	0.460032723924 	0.000273504537501
 2.50583125054 	0.572111832356 	0.000257442426114
 2.28188574064 	0.29178052513 	-5.62588331815e-05
 2.70953250496 	0.254644970393 	-0.000164149658814
 3.35679911847 	0.347588356693 	-0.000612513943207
 3.54404180416 	0.349010094835 	-0.000256754996696
 3.78175390423 	0.422505229152 	3.22084090175e-05
 3.76417156735 	0.508977472553 	-0.000102949773505
 3.44514142287 	0.549648434769 	-9.27208557875e-05
 3.08400949479 	0.105899986906 	0.000155346330574
 2.84324139042 	-0.185663928926 	4.66959882714e-05
 3.63731347214 	0.0869907652192 	-0.000110516240636
 3.45582180414 	0.714989434193 	-0.000316809132327
 2.28765921667 	0.73099316037 	0.000798696477623
 2.55683008636 	0.340946605647 	0.00018600328872
 3.09858434118 	0.166391194986 	-0.000101731512626
 3.17735649493 	-0.00633149461442 	0.000224746866011
 2.89866968273 	-0.0231463701879 	-4.86106115143e-05
 2.77807821681 	-0.381340950399 	1.72363439482e-05
 3.08976367733 	-0.568789162674 	-0.000199354504332
 3.67214703668 	-0.112316759448 	0.000148314496689
 4.08560522322 	0.247509468325 	-0.000717795954521
 3.7687125611 	0.331665889129 	-0.000871314968186
 3.28612984824 	0.224419366042 	-0.000111787196024
 3.30136206632 	0.0839806401715 	0.000226368084272
 2.94877692855 	0.0832704281633 	-0.000175889782955
 2.79505048694 	0.287480546235 	-0.000220256729463
 3.06248671837 	0.21402233468 	-4.05484357038e-05
 2.85873341229 	-0.132059735624 	9.54856040375e-05
 2.97210863996 	-0.139766505248 	-7.09345044979e-05
 3.29724470745 	-0.0770692799446 	-0.000148514679688
 3.63241250732 	-0.456153033952 	0.000228425811545
 3.83381116753 	-0.650343274349 	-0.000615529876573
 3.28513377989 	-0.441181508617 	-0.00048607888703
 2.38210217884 	-0.228294881014 	-6.54670187289e-05
 2.33104757232 	-0.347342861489 	-5.92630486507e-05
 3.38187496327 	-0.263106424789 	-0.000170016037568
 3.78467879701 	-0.215141361833 	1.58616157638e-05
 3.43240932411 	-0.383345786964 	-3.17244824516e-05
 2.83580454251 	-0.136117726411 	-0.000542117074565
 3.1637132996 	-0.154691548972 	1.54794101852e-05
 4.04414238232 	-0.433398259621 	0.000726019737415
 4.02217046082 	-0.165335473221 	0.000289932062518
 4.10952154496 	0.30858418385 	-0.000281164091108
 4.25794545527 	0.53774238697 	-0.000504837619022
 4.49017249035 	0.514262816099 	-0.000263787449967
 4.87521187591 	0.524896967702 	-0.00027176240663
 4.33539112343 	0.697845581025 	-0.000243555516232
 3.90066179837 	0.741084758715 	0.0002428571631
 4.35588312431 	0.539619953039 	0.000499209826871
 3.76035754975 	0.820266574484 	-1.00005894591e-05
 2.4375806506 	0.779714639589 	9.16489170758e-05
 1.96503465824 	0.409988535396 	0.000202636190158
 2.09464464165 	0.548150908261 	-0.000417533820709
 2.64589913262 	0.460981283941 	0.00012073472233
 3.46248911432 	0.477172333591 	0.000311978919606
 3.7147167822 	0.522362860329 	0.000152453519251
 3.6025611752 	0.512998080544 	0.000226268114399
 3.50081552171 	0.55524679852 	-4.89944602064e-05
 3.54936825739 	0.731226772557 	-0.000170615092994
 3.70519970301 	0.930272835761 	-0.00013523506646
 3.20572879934 	0.822990793664 	3.66753491591e-06
 2.80745925775 	0.389714839805 	0.000178310864174
 2.64785797334 	-0.252167840032 	0.000435064289642
 2.6373525586 	-0.588705358502 	0.000372554267261
 3.23846158512 	-0.149247383699 	0.000182307420274
 3.39595071692 	0.182746363511 	-0.000580076482747
 3.01238489129 	0.0655821269811 	-0.000603422071301
 2.57339013211 	0.0156758198795 	-0.000410238224064
 2.73170052145 	0.199926725922 	0.000144905680847
 3.14822068436 	0.563209438301 	-0.000187662556411
 3.07700978377 	0.864859391714 	-0.000273042546662
 2.86469942274 	0.793599075369 	0.00019952358322
 2.63610300799 	0.402620989526 	0.000223505902099
 2.62705596976 	0.1549396824 	-0.000200938235341
 2.92442643629 	0.247548607823 	-0.00024163211304
 3.33841461925 	0.31493362214 	-7.64609850157e-05
 3.44517336 	0.145401506203 	1.24176663419e-05
 2.82263251332 	0.275303942461 	0.000275088013801
 2.22897211786 	0.229694039959 	0.000182458899957
 2.44793967238 	0.0928311788354 	0.00013598788872
 2.77062423482 	0.241780159521 	2.33274682432e-07
 2.92541503669 	-0.00329066091606 	2.73984492855e-05
 3.09789241874 	-0.479142934604 	0.000160525299333
 3.21833708485 	-0.612303711575 	-6.12857347344e-05
 3.94606199357 	-0.241134093807 	-0.00011977191096
 4.26007534759 	-0.117064967619 	-0.000348857141416
 4.14179887557 	-0.285239186419 	-0.000132175286933
 4.3847263338 	-0.159556312871 	-0.000258513606366
 4.03430908478 	0.398217600655 	-9.72673852749e-05
 3.36974386695 	0.713755792997 	0.000208710483824
 3.01665337607 	0.13964967587 	0.000684386194311
 2.82948185012 	-0.281939820776 	-0.000141998659628
 2.81007256335 	-0.342224591634 	-9.55055674188e-05
 3.05234501225 	-0.146637785905 	4.62163432361e-05
 2.71305013684 	0.419750924182 	0.000117284265843
 2.50948323306 	0.449912957048 	-9.93842076568e-05
 2.74784684673 	0.425550471322 	-0.000504565429655
 2.81612703887 	0.398180802083 	-0.000464462565116
 3.21476423611 	0.0533349123064 	0.000186444353091
 3.72047512871 	-0.742638057511 	0.000330825645956
 4.58842027078 	-1.11448027424 	0.000761289424647
 4.90397947774 	-0.630693359519 	-0.000244689528638
 3.57102523846 	-0.15746153897 	-0.000328706278073
 3.07796808792 	0.19514391704 	1.73759142185e-05
 3.69544182506 	0.399326061532 	-0.000420444348886
 3.80139052369 	0.287258672763 	-0.000592080376964
 3.89571968306 	-0.0498274850861 	0.000289447295028
 4.29659792235 	-0.299840906549 	8.2387800135e-05
 4.60120719501 	-0.463593337551 	-0.000463854836427
 3.90385740766 	-0.348122178299 	-0.000708595895867
 2.68789095286 	-0.287283366061 	-0.000662807541379
 2.51668534167 	0.178840742624 	-0.000143930083035
 3.34754686633 	0.742444654826 	-0.00023826372331
 4.15030079297 	0.853689515515 	-0.000127781509667
 4.06077240552 	0.729518211122 	3.7802532655e-05
 3.35786849322 	0.269427989214 	0.000153267235135
 3.18891564559 	-0.0505808325222 	0.000193041387794
 3.38212008139 	-0.416864902121 	-0.00032694866457
 3.61244514068 	-0.595559828167 	-0.000121780357143
 4.24225531332 	-0.438931089484 	0.000187011012128
 4.47855753482 	-0.00647877677659 	-0.000187020566944
 4.06940049445 	0.709065466822 	-0.000315189208874
 3.67239988275 	1.04447628848 	-0.00023909167985
 3.38713078968 	0.780105338364 	-0.000313720260828
 3.30021949945 	0.416059673461 	-0.000410078113885
 3.36746040257 	0.538227267404 	-0.000200385370166
 3.49412398716 	0.667882885756 	-0.000116162480271
 3.54147961537 	0.717237362674 	-0.000178888869564
 3.5347851334 	0.704808592254 	-0.000117320953078
 3.4509268354 	0.495759208975 	-4.51357527027e-05
 3.51411469519 	0.396009939882 	-9.6399174039e-05
 4.03485896353 	0.533614385959 	6.04164491793e-05
 4.5559457454 	0.593198709444 	3.3330970694e-06
 4.54536082451 	0.538752658641 	-3.36199407776e-05
 3.94908370196 	0.511153858046 	-0.000178822661402
 3.77363273447 	0.15653053647 	0.000135086453695
 4.35285936907 	-0.138560993806 	0.000340180046314
 4.66660405703 	-0.0871194613508 	-0.000315651498945
 4.64763743024 	-0.0307081247952 	-0.000434668823098
 4.53450563602 	-0.213797937003 	-0.000629306656413
 4.49746212093 	0.197439567978 	0.0323747921954
 4.65611113449 	0.151454665676 	0.0549344292136
 4.73967715962 	0.0400108325158 	0.0947392090301
 4.64966689464 	-0.048135177363 	0.107610367141
 4.56993663912 	-0.105217658728 	0.0852130956052
 4.85562793099 	-0.213321504953 	0.0764042696235
 5.2011851792 	-0.283658585421 	0.0578360788764
 5.22682335253 	-0.170489399148 	-0.0288664057278
 5.14576359501 	0.0549433166312 	-0.190320196887
 5.29635991745 	0.302328525169 	-0.263025454832
 5.40567005809 	0.427166297178 	-0.129132757872
 5.03201596085 	0.509536231165 	0.0129146233933
 4.53362785692 	0.467344170745 	0.0879946167871
 4.59624682417 	0.329120281421 	0.118637951347
 4.98205289806 	0.199232165872 	0.127073937885
 5.11445194383 	0.00197349895618 	0.102015347159
 5.39985245845 	-0.102307379477 	0.0583452956044
 5.74686660825 	0.00713557659546 	0.0138663275387
 5.73271075296 	0.144459597585 	-0.0389867320103
 5.60165217196 	0.108704086075 	-0.0381874964169
 5.25114595728 	0.171271993152 	0.0331700141412
 4.81803610414 	0.294115389533 	0.132659537445
 4.76814562525 	0.102584072682 	0.141834512074
 5.14606140028 	-0.0656672008487 	0.0195125400629
 5.53802014787 	0.0194690774848 	-0.108408588455
 5.51455493381 	0.214667376161 	-0.107476214923
 5.28111518797 	0.298002334809 	0.0153814808203
 5.23272586312 	0.318321592135 	0.0379902419253
 5.31149802092 	0.389164920257 	-0.0367174862537
 5.42249623018 	0.392636378478 	-0.0714455537431
 5.4492994557 	0.247805620061 	-0.177824756631
 5.09251110767 	0.239110140467 	-0.177055220013
 5.11007588487 	0.49550286531 	-0.0360582475386
 5.30955742295 	0.788433679068 	0.0652358748369
 5.07269013175 	1.03164913891 	0.0897417695144
 5.25555599558 	1.17878523488 	-0.0378713583055
 5.20622492432 	1.23242560524 	-0.0824361849548
 4.46204527462 	1.11508111889 	0.0564985187179
 3.82659245416 	0.848255139341 	0.215106855176
 3.75498578613 	0.624888604147 	0.171705595821
 4.01734554814 	0.510016794326 	-0.0140670766708
 4.30402640183 	0.580832296176 	-0.109269859804
 4.46626124517 	0.815342074472 	-0.122103190266
 4.14427288373 	0.737364172668 	-0.0718110357336
 3.7763498214 	0.405769503601 	-0.0436717808236
 3.7919277748 	0.221352812273 	0.0380799436672
 4.00037077369 	0.23078726252 	0.169847736304
 4.23180917922 	0.334418519302 	0.197779187162
 4.17354175759 	0.396455933555 	0.131891099051
 4.07097382984 	0.447702735237 	0.088688915835
 3.96956239426 	0.689115833817 	0.163112854537
 3.69775094817 	0.909283241622 	0.318988342777
 4.04231228654 	0.807187290685 	0.317473628515
 4.56355372877 	0.555375347074 	0.152888993023
 4.93095733543 	0.6150293804 	0.125083115503
 5.09995521085 	0.809585401942 	0.116619889512
 4.68259010722 	0.805007033325 	0.0517125914077
 4.3283588344 	0.694736355808 	0.0687167290492
 3.69025245904 	0.522561064688 	0.0769379074129
 3.16344824622 	0.563233762975 	0.0394074164215
 3.33600794783 	0.393449154823 	0.185152709976
 3.83271333295 	0.119046002619 	0.298131657153
 4.36806256151 	0.112658384423 	0.153148852762
 4.75841333209 	0.240641119099 	-0.0104000913952
 4.97901179751 	0.517533707458 	-0.101798710956
 4.83306617086 	0.610473532642 	-0.0201951402564
 4.6812862024 	0.523233862613 	0.124052302707
 4.79728750306 	0.410401998494 	0.0896109973179
 4.86269854487 	0.361488609051 	-0.00574035891347
 4.70684920667 	0.414860158831 	0.0222747726749
 4.74316450847 	0.418763102895 	0.0215304121955
 4.76460325432 	0.448627396375 	0.0307139715725
 4.36353705781 	0.542686670543 	0.123749728865
 3.80802672938 	0.429260091031 	0.181890549962
 3.78038121035 	0.108988026174 	0.102570348612
 4.5697363155 	0.260446544972 	-0.155282839037
 5.00871164938 	0.377705285521 	-0.211971389994
 4.89017864099 	0.169537033236 	-0.0835001195978
 4.92802786666 	0.257922831469 	-0.065976932959
 4.89132768868 	0.289573512843 	-0.0521362245855
 4.61386603406 	0.111939173434 	0.0201895763051
 4.89862387177 	0.0466896724039 	-0.0370326009552
 5.19914063833 	0.20757482339 	-0.165369065238
 4.44698353246 	0.508022782182 	-0.0284550777482
 3.61908481817 	0.500080705573 	0.243988901589
 3.75519377432 	0.3336144548 	0.22601230329
 4.22882952722 	0.234772674787 	0.0945727271602
 4.3927312741 	-0.000959511357971 	0.0222280864451
 4.57655020974 	-0.153797188308 	-0.177605829024
 4.5755158065 	-0.125707932213 	-0.128367109974
 4.32247490427 	0.0117416356318 	0.0594463801728
 4.00434279235 	0.186138851056 	0.0121243781776
 3.85430357435 	0.157808606832 	0.00534768787421
 4.41383251799 	-0.0116427502446 	-0.0339455782177
 4.96551948242 	0.00759951625213 	-0.0986556091786
 5.15306188008 	0.0827288795789 	-0.181747857953
 5.24111865664 	0.144456952738 	-0.133780563405
 4.76331370975 	0.362884153641 	0.102085038659
 4.42640122298 	0.495481234115 	0.169116951893
 4.4150298539 	0.242169979545 	0.135759924785
 4.35352603757 	-0.0206146922667 	0.0687048837042
 4.45211974137 	-0.13660679773 	0.0219501570738
 4.58916265598 	-0.182200536334 	-0.00250230450218
 4.74578620196 	-0.129015202613 	-0.0522845233298
 4.76214204062 	-0.125311406725 	-0.0469741060305
 4.71340853916 	-0.194621729478 	0.00795149457661
 4.85499933956 	-0.20198432378 	-0.0296164121511
 5.02593541963 	-0.0862215830951 	-0.144433318023
 5.13672427977 	-0.0327277491641 	-0.163733975502
 5.33244489248 	-0.0836470174308 	-0.117412096036
 5.50287019183 	-0.0376989578509 	-0.132805935449
 5.19180051501 	0.0581673981229 	-0.0654642990116
 4.8589874236 	0.068718456245 	0.0297784900511
 4.96523476584 	0.0252418262036 	-0.0479492362829
 5.01724607704 	0.0396960970688 	-0.11519252752
 4.96600857814 	0.159986588072 	-0.112594200614
 4.78578395846 	0.34848112812 	-0.084210703576
 4.81351819955 	0.37034939873 	-0.15114959048
 5.08993882956 	0.313013995434 	-0.28747073647
 4.86772842874 	0.33150127248 	-0.246290192968
 4.39365977758 	0.251538650891 	-0.0891340549525
 3.95314005134 	0.135025301174 	0.0734200674097
 4.24746643681 	-0.0463751905808 	-0.0171997788439
 4.84533232857 	-0.0677877798274 	-0.225665144597
 4.64408948199 	0.208538256773 	-0.147926810717
 4.49943393841 	0.371818454053 	-0.0897705776133
 4.98414252979 	0.436163506839 	-0.151778189026
 5.12872603189 	0.423657868735 	-0.0512758027978
 4.66468359065 	0.254609927203 	0.106954260075
 4.38616021883 	0.235489949762 	0.0747627827779
 4.12476469363 	0.218975431142 	0.033589569549
 3.94974401345 	0.0556396451525 	0.0578364339825
 4.43184448272 	0.0997398217629 	-0.106845739956
 4.79454285445 	0.255435287151 	-0.209612687804
 4.4884972958 	0.4076153524 	-0.0767062200192
 4.13716989343 	0.551191929003 	0.0524199818438
 3.97067338937 	0.512951208282 	0.0857223002836
 4.23390770182 	0.314904863377 	0.0454022607259
 4.42500584405 	0.176197317396 	0.0292160125379
 4.41058645585 	0.238808562089 	-0.00608386691015
 4.58702217182 	0.388509770395 	-0.0437129798409
 4.64948899888 	0.461879002504 	-0.0375323481994
 4.52688678291 	0.533043132068 	-0.0369621587413
 4.33934018643 	0.610110115457 	0.026518614961
 4.04830181651 	0.689653223926 	0.114618299762
 3.66156613436 	0.531597540943 	0.130198541407
 3.69382977139 	0.414003307713 	0.00600807941782
 3.75160856339 	0.528930054591 	-0.0399289797214
 3.81920254034 	0.51534306413 	0.0180748209119
 4.05552933479 	0.358341043801 	-0.00591894195608
 3.93803891159 	0.27997068061 	0.00663351559799
 3.90819309821 	0.385983660245 	0.0368532259589
 3.97842274542 	0.447799008845 	0.0197053215337
 4.08995522335 	0.469766900971 	-0.0525866946194
 4.35560969746 	0.572786431487 	-0.103526431924
 4.31810176245 	0.525093025802 	-0.0349594858394
 4.17850186493 	0.451742812778 	0.024767702567
 4.24021154759 	0.423135165654 	0.0261311089334
 4.30908597189 	0.319925775028 	-0.00753747256228
 4.30959989342 	0.251811541031 	-0.0620423194004
 4.50693556223 	0.221525861679 	-0.130619194011
 4.8479424114 	0.312824428717 	-0.152345054929
 4.97293769251 	0.375986948724 	-0.134375602176
 4.63227815572 	0.481524425915 	-0.0440916777197
 4.61405759279 	0.716812900876 	0.00664297159159
 4.75436154816 	0.834129314748 	0.00358002157615
 4.09924345014 	0.76352400909 	0.145776643284
 3.59679802385 	0.677020651466 	0.304871949672
 3.43618094661 	0.341729606234 	0.324275973192
 3.4084612468 	-0.0536921205231 	0.138771673744
 3.74543201536 	-0.118166941043 	-0.00480764834615
 3.93102848811 	-0.304360519554 	-0.0163985298842
 3.98089191998 	-0.421531551683 	0.00501952491784
 4.19867206666 	-0.301116616229 	0.0478062016038
 4.31095850943 	-0.383556091839 	0.0833164319809
 4.31805808532 	-0.513469824048 	0.107664122534
 4.30760377611 	-0.511370028455 	0.133453033904
 4.69828560175 	-0.369643374065 	0.123354485998
 5.38258937922 	-0.14081437384 	-0.00488686968024
 5.42089805821 	0.121366606448 	-0.0446544773613
 5.05916551143 	0.285815692834 	0.0588837103437
 4.74622428935 	0.55553445196 	0.105832183728
 4.3437231459 	0.736846007041 	0.0739148153629
 4.25320451561 	0.677859696163 	-0.0353944139816
 4.49399955177 	0.530054931786 	-0.0943188631381
 4.59258104906 	0.398999624809 	-0.0271331202471
 4.43656593976 	0.392961212344 	0.0579703414101
 4.36582874186 	0.366130696774 	0.0565415037718
 4.32106410676 	0.447986117661 	0.0909375101825
 4.1139473962 	0.372498341175 	0.141676952214
 4.12871934243 	0.312608272101 	0.0383491089501
 4.63343826398 	0.316802536923 	-0.139224339301
 4.45976390861 	0.316483551079 	-0.000286801249249
 3.69920880343 	0.331956692516 	0.19505927805
 3.65626582615 	0.260730103316 	0.0818892118464
 3.82637709063 	0.131292361275 	0.0497615912755
 4.06194451554 	0.00902585471821 	0.0422497269875
 4.14823109921 	0.099565342055 	0.0638898787334
 4.03237499966 	0.0791024555312 	0.0636763696839
 3.73071156814 	-0.0753565923692 	0.00405494199186
 3.99378471675 	0.204258512258 	-0.145154894226
 4.84610631177 	0.502191908717 	-0.283619296088
 4.89583790466 	0.517043387134 	-0.120227189046
 4.3694509189 	0.476083850516 	0.0936593569795
 4.11007629161 	0.269005480019 	0.00421817552753
 3.98045102017 	0.125619805845 	-0.0669428989853
 3.88070930611 	0.0328045122181 	0.113962876439
 3.82098176518 	-0.119616367953 	0.200015235334
 3.78374763122 	-0.197554961965 	0.112624153678
 3.94203998214 	-0.178100066684 	-0.00864617289344
 3.8751773372 	-0.199640153896 	0.0486888123799
 3.86535489213 	-0.310175134269 	0.0175937683488
 4.03522422996 	-0.500094096417 	-0.167264153574
 4.02537217276 	-0.488563379474 	-0.197758625341
 3.90197613003 	-0.20129898301 	-0.138788125966
 3.75475029652 	0.11079970243 	-0.0996130630155
 3.83233165015 	0.272314344982 	-0.0479366657225
 4.03350700437 	0.260164861191 	0.00943220006986
 4.16507774311 	0.127271020341 	-0.0797400707523
 3.6738662069 	0.0430853429325 	-0.0836531168607
 3.62644411247 	0.187055064302 	0.19566973889
 4.3541754371 	0.409071063277 	0.165686279006
 4.5660410892 	0.656669175423 	-0.213505851479
 4.65105631236 	0.857207645195 	-0.334292105255
 4.73461850399 	0.861958791375 	-0.253850312404
 4.80113773762 	0.812136919021 	-0.184981310078
 5.14752852703 	0.704328015378 	-0.0893302864743
 5.14109911068 	0.860956582337 	0.0539923066206
 4.66637052756 	0.916630537783 	0.214042299858
 4.85543503173 	0.455753793389 	0.19007978148
 4.80906719212 	0.20744052859 	0.133993364362
 4.02173695942 	0.132825360406 	0.197085484402
 3.99306290578 	0.0724297576971 	0.0574733241515
 4.41295013348 	0.157835373933 	-0.0256128510029
 4.68042187423 	0.218447194571 	0.0733920798583
 4.99619957514 	0.200022509145 	0.08130957917
 5.04514170183 	0.247135747646 	0.0440830017072
 5.07939836721 	0.339841420049 	-0.0314369749371
 5.19401118771 	0.504791640441 	-0.125937614355
 5.17969901092 	0.677730558084 	-0.138434533819
 5.03543057556 	0.771113691433 	-0.059422979476
 4.5569676893 	0.79293967237 	0.0868496620359
 4.25258977731 	0.666464155576 	0.209242823625
 4.40549047313 	0.55148524966 	0.132964358957
 4.64844421872 	0.672696823668 	-0.0860771440108
 4.92600881722 	0.876394429696 	-0.26615229512
 4.7878340461 	0.97675044252 	-0.238276035469
 4.30605676616 	0.895428242459 	-0.100363927127
 3.95096220172 	0.576568286155 	-0.0653902251348
 4.16057025021 	0.357100830589 	-0.127371775158
 4.60823614078 	0.446146904838 	-0.233476115701
 4.55946358588 	0.575792874584 	-0.204899492383
 4.35076314231 	0.593487903461 	-0.0930088567313
 4.08037164903 	0.639398187714 	-0.0161565033134
 3.64504295008 	0.663071375989 	0.0593995187988
 3.54525034265 	0.515718232429 	0.0545756545654
 3.81476886803 	0.305930056071 	0.0617300049074
 3.91481520303 	0.0935169770735 	0.091785181589
 3.70236033054 	0.149920077564 	0.0739535339813
 3.64587597667 	0.371936501712 	0.100565564033
 3.79512690873 	0.376264846068 	0.0911726414951
 3.86037264859 	0.303324210206 	0.0500171941217
 3.89071038931 	0.166798530446 	0.0946694895153
 3.85992672772 	0.0212202759469 	0.123436790674
 3.89433164555 	-0.0284938374906 	0.012810075394
 4.36409011825 	0.0684795060418 	-0.135513660277
 4.86667469258 	0.227844389027 	-0.124749020757
 5.0309704828 	0.204821193511 	-0.10552442711
 4.9542988214 	0.166993323537 	-0.134383314114
 4.62650710613 	0.159445396402 	-0.0766255898954
 4.04504497509 	0.211298161916 	0.177085052334
 3.58130514018 	0.0120451507076 	0.322015292078
 3.66812401766 	-0.291507704371 	0.21011060397
 4.13148006512 	-0.221093132346 	0.079797126108
 4.38904986601 	-0.0305333099764 	0.0471307552648
 4.10354573553 	-0.0829267774694 	0.0878124281764
 4.18165216128 	-0.142785775093 	0.00366406740051
 4.47133734659 	-0.191910765217 	-0.0640031103249
 4.50184300678 	-0.242842296692 	0.0267366843192
 4.4831992307 	-0.136144789416 	0.175967868565