# vtk DataFile Version 3.0
array.1
ASCII
DATASET STRUCTURED_POINTS
DIMENSIONS 1 321 161
ORIGIN 1500.01 799.99 0.001
SPACING 0 1.25 1.25
POINT_DATA 51681
 FIELD attributes 2
T 1 51681 float
299.9995364
 299.999499221
 299.999497846
 299.999493126
 299.999579888
 299.999941591
 300.000405292
 300.000454484
 300.00024046
 300.000267092
 300.000232683
 299.99997458
 299.999745932
 299.999659784
 299.99973644
 299.999921064
 300.000102575
 300.000131343
 300.000052547
 299.999928451
 299.999889213
 299.999896902
 299.999789126
 299.999886664
 299.999908018
 299.999842851
 299.999997379
 300.000179104
 300.000011364
 299.999703212
 299.999538437
 299.999414338
 299.999603027
 299.999804327
 299.999846957
 300.000062117
 300.000088217
 299.999785342
 299.999523941
 299.999547314
 299.999654393
 299.999495574
 299.999162881
 299.99907222
 299.999420851
 299.999775871
 299.999808849
 299.999762065
 299.999852877
 299.999771535
 299.999414668
 299.999256957
 299.999552109
 299.999902191
 299.999983761
 299.999978111
 300.000010191
 300.000072355
 300.000089908
 300.000045166
 299.999886633
 299.999795563
 299.99970214
 299.999339739
 299.999394352
 299.999487742
 299.999374339
 299.999545085
 299.999702425
 299.999595037
 299.999447049
 299.999606855
 299.999654803
 299.999736024
 300.000177742
 300.0002447
 299.999942493
 299.999855901
 299.999896845
 299.999803119
 299.999630887
 299.999534821
 299.999825258
 300.000184807
 300.00012905
 299.999958577
 299.99986352
 299.999883678
 299.999915679
 299.99979027
 299.999831255
 299.999915845
 299.999879352
 299.999907876
 300.000045323
 300.000085771
 300.000093699
 299.999993031
 299.99979654
 299.999769487
 299.999674486
 299.999639575
 299.999663486
 299.999674051
 299.999743018
 299.999803821
 299.999735579
 299.999688921
 299.999730242
 299.999791124
 299.999836727
 299.999883101
 299.999903334
 299.999863546
 299.999828525
 299.999771548
 299.999759341
 299.999828358
 299.999837653
 299.999821588
 299.999997114
 300.000180465
 300.000040262
 299.999816366
 299.999875588
 299.99980053
 299.999709658
 299.999726755
 299.999668956
 299.999765575
 299.999791476
 299.999850955
 300.000035202
 300.000011177
 299.999876886
 299.999784577
 299.999648056
 299.99948185
 299.999523301
 299.999622623
 299.999580203
 299.999698189
 299.999826022
 299.99973966
 299.999671252
 299.999669186
 299.999815963
 300.000067511
 300.000065346
 299.999844196
 299.999721849
 299.99972146
 299.99979721
 299.999883694
 299.999875848
 299.999752059
 299.99965483
 299.99964613
 299.999565485
 299.999567986
 299.999726221
 299.9998017
 299.99987051
 299.999810544
 299.999871261
 300.000113972
 300.000032443
 299.999728223
 299.999602169
 299.999680639
 299.999736653
 299.999774145
 299.99974293
 299.999589582
 299.999499297
 299.999619177
 299.999409651
 299.998792577
 299.99868667
 299.998701212
 299.998402418
 299.998344288
 299.998909581
 299.999736378
 299.999800506
 299.99948528
 299.999446455
 299.999455244
 299.999491122
 299.999708502
 300.000001855
 300.000318123
 300.000382565
 300.000153976
 300.000098831
 300.00011671
 300.000090033
 299.999934719
 299.999559736
 299.999382825
 299.999753524
 299.999991697
 299.999881593
 299.999702092
 299.999578022
 299.999525898
 299.999266862
 299.999259819
 299.999439348
 299.999475124
 299.999444587
 299.999566472
 299.999612429
 299.99933266
 299.999450853
 299.999747355
 299.999673358
 299.999545132
 299.999540966
 299.999724806
 299.999706386
 299.999716349
 299.999847769
 299.999832599
 300.000075661
 300.000294737
 300.000029338
 299.999959375
 299.999908878
 299.999608551
 299.999377184
 299.999147189
 299.999243473
 299.999416771
 299.999213605
 299.998883682
 299.998764511
 299.998773101
 299.998930127
 299.999003487
 299.998824372
 299.998576635
 299.998542025
 299.998881862
 299.999260108
 299.99930958
 299.999208742
 299.999466652
 299.999969248
 300.000202293
 300.000027839
 299.999765489
 299.999818568
 299.999970925
 300.000021232
 300.00005185
 300.000088582
 300.000240198
 300.000173806
 299.999908254
 299.999836075
 299.99991205
 299.999924763
 299.999810363
 299.999832958
 299.999897502
 299.999737417
 299.999602646
 299.999649564
 299.99987397
 300.000054562
 299.999793431
 299.999517809
 299.999599274
 299.999622528
 299.999579376
 299.99964184
 299.999624716
 299.999687344
 299.999856664
 300.00007922
 300.000434494
 300.000387619
 299.999977703
 299.999992393
 300.00010736
 300.000063345
 299.999945741
 299.999984983
 300.00024342
 300.000141757
 299.999900205
 299.999984687
 300.000021141
 300.000014377
 300.000111475
 299.999994101
 299.999743084
 299.999644921
 299.99955192
 299.99946491
 299.999607184
 299.999642782
 299.999552957
 299.999470932
 299.999401909
 299.999396314
 299.999430893
 299.999467542
 299.999500685
 299.999621695
 299.999784351
 299.999980562
 300.000054376
 300.000115529
 300.00019169
 300.000198176
 300.00025649
 300.000304266
 300.000298662
 300.000092797
 299.999584393
 299.999607438
 299.999682739
 299.999740859
 299.999785398
 300.000017072
 300.000332391
 300.000411659
 300.000286226
 300.000197774
 300.000223158
 300.000119727
 299.999884535
 299.99980985
 299.999905143
 299.999972981
 299.999942961
 299.999937178
 299.999853963
 299.99975935
 299.999877242
 299.999908317
 299.999748654
 299.999894731
 300.000128645
 300.000133013
 300.000051384
 300.000014667
 299.999924252
 299.999807902
 299.999865997
 299.999690017
 299.999832367
 300.000663348
 300.000654872
 299.999892687
 300.000032645
 300.000450805
 300.000126544
 299.999823829
 299.999716355
 299.99953066
 299.999339193
 299.999228969
 299.999662706
 300.00012519
 299.999965664
 299.999762415
 299.999700966
 299.99968396
 299.999457349
 299.999132056
 299.999085216
 299.999339024
 299.999731741
 299.999913754
 299.999847249
 299.99996415
 300.000029117
 299.999958738
 299.999943872
 299.999862514
 299.999800328
 299.999477603
 299.999408633
 299.999411748
 299.999279944
 299.999432026
 299.999595069
 299.99957939
 299.999517914
 299.999607613
 299.999549475
 299.999566503
 299.999916192
 300.000008528
 299.999848786
 299.999844473
 299.999920546
 299.999859351
 299.999808752
 299.999969495
 300.000146534
 300.000194238
 300.000137496
 300.000005597
 299.999901705
 299.999954087
 299.999975165
 299.999739592
 299.999638287
 299.999838694
 299.999956283
 299.999890382
 300.000013972
 300.000166505
 300.000197716
 299.999965863
 299.999735207
 299.999734553
 299.999636501
 299.999685899
 299.999750778
 299.999729803
 299.999757136
 299.999772362
 299.999790478
 299.999874955
 299.999897387
 299.999814329
 299.999859241
 299.99990526
 299.999812772
 299.999777332
 299.999873107
 299.999986225
 299.999990757
 299.999990992
 300.000055719
 299.999960449
 299.999717783
 299.999719395
 300.000011235
 300.000295533
 300.000281778
 300.000039197
 299.999977426
 299.999877814
 299.999809589
 299.999998822
 299.999955709
 299.999787784
 299.999820992
 299.999895334
 299.999924318
 299.999879349
 299.999780931
 299.999676927
 299.999747426
 299.999865033
 299.99971474
 299.999705272
 299.999833548
 299.999774243
 299.999721645
 299.999744848
 299.999838684
 299.99998613
 299.999993746
 299.999873146
 299.999781662
 299.999783198
 299.999793733
 299.999778381
 299.999773165
 299.99975352
 299.999739735
 299.999789304
 299.999776402
 299.999784344
 300.000009215
 300.00010467
 300.000064084
 300.000002594
 300.000123167
 300.000376583
 300.000268824
 299.999844745
 299.999608956
 299.999575988
 299.999545935
 299.999566856
 299.999418966
 299.999174721
 299.999069614
 299.999128676
 299.998953449
 299.998898075
 299.999281974
 299.999295417
 299.999009806
 299.99865205
 299.998885453
 299.999473539
 299.999282777
 299.999032061
 299.99922621
 299.999404004
 299.999482919
 299.999646916
 299.999806965
 299.999938183
 300.000012101
 300.00002847
 300.000079365
 300.000147129
 300.000265125
 300.000077535
 299.999551205
 299.999345934
 299.99978754
 299.999986943
 299.999727305
 299.999668434
 299.999692705
 299.999551574
 299.999234282
 299.999178229
 299.999474643
 299.999609454
 299.999511672
 299.999590659
 299.999590923
 299.999281732
 299.999312888
 299.999628002
 299.999597483
 299.999374636
 299.99913512
 299.999168375
 299.999272529
 299.999264684
 299.999439861
 299.999631881
 299.999895877
 300.000129783
 299.99987562
 299.99993553
 300.000107194
 299.999752828
 299.999403025
 299.999246631
 299.999617576
 299.999811199
 299.999584924
 299.999222081
 299.998857127
 299.998975092
 299.999218873
 299.999306175
 299.999206119
 299.998917164
 299.998739874
 299.998902071
 299.999250637
 299.999429939
 299.999565187
 299.999846772
 299.999927578
 300.000024973
 300.000221614
 300.00009306
 299.999986717
 299.999992818
 299.999983317
 300.000011513
 300.000024108
 300.000198389
 300.000168325
 299.999844847
 299.999836627
 300.000022644
 300.000051994
 299.999975384
 299.999991143
 300.000012502
 299.999776519
 299.999541469
 299.999548513
 299.999813034
 300.000049408
 299.999847481
 299.9995479
 299.999628516
 299.999649002
 299.999629132
 299.999790526
 299.999670541
 299.999692362
 299.999907434
 299.999869154
 299.999977992
 300.000199579
 300.000210336
 300.000436141
 300.000524143
 300.000266699
 300.000134424
 300.000233164
 300.000358884
 300.000243603
 300.000113135
 300.000095252
 299.999908266
 299.999795539
 299.999927409
 300.000047071
 299.999985512
 299.99981018
 299.999606657
 299.999622189
 299.999909834
 299.9997044
 299.999316627
 299.999308917
 299.999421296
 299.999460525
 299.999461505
 299.999498125
 299.99954034
 299.999619372
 299.999716602
 299.999886869
 300.00001855
 300.000017784
 299.999940972
 299.999925379
 300.000031563
 300.000101954
 300.000117991
 300.00002654
 299.999685076
 299.999706797
 299.999812642
 299.999948018
 299.999996879
 300.000093293
 300.000253702
 300.00036093
 300.000322209
 300.0001518
 300.000269482
 300.000333488
 300.000074611
 299.999982432
 300.000022924
 300.00002996
 299.99989855
 299.999771184
 299.999637718
 299.999596959
 299.99978913
 299.9998976
 299.999850267
 299.999900311
 300.000096428
 300.00012898
 299.999972626
 299.99985795
 299.999888651
 300.000010718
 300.000180379
 300.00010545
 300.000238391
 300.001120368
 300.001169081
 300.000159517
 300.000268468
 300.00097338
 300.000603527
 300.000071403
 299.99986978
 299.999667566
 299.999598587
 299.999423132
 299.999690237
 300.000108604
 300.000027196
 299.999914104
 299.999657952
 299.999644019
 299.999540297
 299.999209125
 299.999155931
 299.999317713
 299.999551426
 299.999822727
 300.000211204
 300.000459098
 300.000173295
 299.999572471
 299.999535679
 299.999820151
 299.999964059
 299.999714509
 299.999562291
 299.999486045
 299.999283062
 299.999370744
 299.999566748
 299.99968611
 299.99976089
 299.999910833
 299.999938011
 299.999693843
 299.999683514
 299.999951456
 299.999850763
 299.999646756
 299.999744007
 299.999836341
 299.999966375
 300.000266219
 300.000260335
 300.000072521
 299.999951865
 299.999842697
 299.999853779
 299.999878218
 299.999820494
 299.9995809
 299.999319951
 299.999544558
 299.999866828
 299.999797805
 299.99990151
 300.000145429
 300.000164375
 299.999853815
 299.999658068
 299.999669502
 299.99955083
 299.999641288
 299.999747691
 299.999678775
 299.999651435
 299.999715949
 299.999825141
 299.999927481
 299.99992467
 299.999846859
 299.999933421
 299.999933868
 299.99983624
 299.999880757
 300.000099077
 300.0003516
 300.000348296
 300.000216916
 300.000211922
 299.999923794
 299.999389418
 299.999643638
 300.000493992
 300.000939945
 300.000722551
 300.000445206
 300.000354094
 300.000216787
 300.000318708
 300.000600443
 300.000463512
 299.999960691
 299.999649558
 299.999649806
 299.999865542
 299.999994511
 299.999932382
 299.999851322
 299.999901944
 300.000004423
 299.999880058
 299.999800129
 299.99982835
 299.999786971
 299.999759732
 299.999732043
 299.999808603
 299.999885911
 299.999826791
 299.999779706
 299.999714726
 299.999694837
 299.999691594
 299.999677718
 299.999727058
 299.99983132
 299.999905215
 299.9999632
 299.999965792
 300.000035032
 300.000287535
 300.00038649
 300.000264531
 300.000221667
 300.000411314
 300.00054277
 300.000382107
 299.999965005
 299.999675512
 299.999577504
 299.999476435
 299.999255197
 299.998819952
 299.998629915
 299.998640981
 299.99867721
 299.998827502
 299.999334439
 299.999832956
 299.999888733
 299.999800135
 299.999303559
 299.999043478
 299.998966358
 299.998640683
 299.998753269
 299.999126171
 299.999261899
 299.999409235
 299.999668438
 299.999664993
 299.999605119
 299.999710084
 299.999827299
 299.999915648
 300.000082198
 300.000313373
 300.000140859
 299.999750795
 299.999672759
 299.999857716
 299.999861768
 299.999593152
 299.999654855
 299.999856196
 299.999660831
 299.999343356
 299.999322351
 299.999660916
 299.999827212
 299.999723774
 299.999661312
 299.999452097
 299.999014501
 299.998883186
 299.999382597
 299.999423872
 299.998807872
 299.998242509
 299.99813096
 299.998281345
 299.998203732
 299.998644005
 299.999457151
 299.999771203
 299.999843719
 299.99973045
 299.999912008
 300.000102545
 299.999932089
 299.999818617
 299.999623535
 299.999930987
 300.000204092
 300.00016331
 299.999888557
 299.99947547
 299.999679971
 299.999831969
 299.999694487
 299.999556644
 299.9993594
 299.999057461
 299.9989865
 299.999449834
 299.999670083
 299.999704366
 299.999840207
 299.999739321
 299.999729184
 300.000205187
 300.000537986
 300.00034935
 300.000114268
 299.999954118
 299.999902739
 299.99987969
 300.000116769
 300.000201887
 299.999944974
 299.999971193
 300.000199561
 300.000252284
 300.000106699
 300.000052735
 300.000088206
 299.999832745
 299.999470074
 299.999410629
 299.999661333
 299.999904994
 299.999897233
 299.999877369
 300.000033449
 299.999978656
 299.999894661
 300.000051853
 299.999948027
 299.999861176
 299.999960338
 299.999755887
 299.999719022
 300.000121635
 300.000381999
 300.000563877
 300.000583567
 300.00035834
 300.000364334
 300.000458151
 300.000419469
 300.000409777
 300.000409651
 300.000202343
 299.99987392
 299.999762493
 299.999868807
 300.000055291
 300.000087692
 299.999929972
 299.999702831
 299.999740555
 299.999972062
 299.999755614
 299.999342493
 299.999330617
 299.999506335
 299.9995391
 299.999522162
 299.999560211
 299.999676875
 299.999777893
 299.999768705
 299.999730327
 299.99974095
 299.999650053
 299.999473479
 299.999501789
 299.999618621
 299.999687356
 299.999684571
 299.999625912
 299.999836707
 299.999834337
 299.999865592
 299.999961972
 300.000056306
 300.000126848
 300.000231478
 300.000321422
 300.000303423
 300.000245482
 300.000318058
 300.000387017
 300.000246058
 300.000116664
 300.0000745
 300.000043833
 299.999862908
 299.999689907
 299.999641166
 299.999669441
 299.999713965
 299.999763631
 299.999881528
 299.999881034
 299.999759722
 299.999674352
 299.999729651
 299.99981007
 299.999793014
 299.999759117
 299.999914569
 300.000192261
 300.000424714
 300.000759985
 300.000888019
 300.000743657
 300.000849341
 300.000940866
 300.000429755
 299.999947403
 299.99990852
 299.9997976
 299.999626613
 299.999418322
 299.999458934
 299.999708674
 299.999909243
 300.000080758
 299.999873001
 299.999756683
 299.999534994
 299.999199665
 299.999437165
 299.999719525
 299.999614961
 299.999859882
 300.000572748
 300.000827654
 300.000527143
 299.999507893
 299.999146878
 299.999843133
 300.000228987
 299.999961179
 299.999681939
 299.999494814
 299.999204726
 299.999357871
 299.999763672
 299.99995607
 299.999967957
 300.000096211
 300.000252306
 299.999983139
 299.999778565
 300.000025398
 299.999907986
 299.999557555
 299.999582808
 299.99977614
 299.99997411
 300.000091698
 299.999997868
 299.999869661
 299.99964911
 299.999560336
 299.999738545
 299.999716551
 299.999593809
 299.999503208
 299.999386256
 299.999532059
 299.999712617
 299.999659508
 299.999817978
 299.999951123
 299.99984688
 299.999791594
 299.999740451
 299.999693958
 299.999646024
 299.999753418
 299.999886374
 299.999818788
 299.999739056
 299.999833894
 299.999940485
 299.999923957
 299.999849831
 299.999822216
 299.999854094
 299.999866953
 299.999873567
 299.999933449
 300.000151527
 300.000380187
 300.000278388
 300.000229298
 300.000541824
 300.00028198
 299.999587239
 299.999812668
 300.00051144
 300.000694716
 300.000507184
 300.000388849
 300.000254918
 300.00028207
 300.000642585
 300.000840945
 300.000672278
 300.000233495
 299.999820461
 299.999597662
 299.999727787
 299.999948268
 299.999887337
 299.999761544
 299.999733279
 299.999778439
 299.999822809
 299.999835302
 299.999813674
 299.999775906
 299.999734949
 299.999652456
 299.999688204
 299.999745793
 299.999669174
 299.999636047
 299.999670602
 299.99965153
 299.99963956
 299.999749573
 299.99988399
 299.999987329
 300.000003531
 299.999970605
 300.000006791
 300.000227325
 300.000392003
 300.00034754
 300.000255553
 300.000292719
 300.000513343
 300.000488842
 300.000259572
 300.000022075
 299.999817376
 299.999888588
 299.999753273
 299.999060189
 299.998315766
 299.998178326
 299.998499272
 299.998753073
 299.999042592
 299.999379406
 299.999563585
 299.999794601
 299.999981095
 299.99974524
 299.999263322
 299.998778038
 299.998665156
 299.998870867
 299.998985584
 299.998909672
 299.99909861
 299.999580152
 299.999660925
 299.999551106
 299.999680028
 299.999717056
 299.999751596
 300.000014887
 300.00019248
 300.000016489
 299.999869958
 299.999890207
 299.999755759
 299.999622106
 299.999470223
 299.999499717
 299.999706647
 299.999725482
 299.999634374
 299.999620693
 299.999753012
 299.999790069
 299.999706315
 299.999560577
 299.999276944
 299.998823097
 299.998494062
 299.998570014
 299.99829162
 299.997626264
 299.997282134
 299.997222948
 299.997113058
 299.99720323
 299.99786667
 299.998805073
 299.999398926
 299.999626855
 299.999713064
 299.999895597
 299.999937213
 299.999858777
 300.000074291
 300.000120626
 300.000188684
 300.000392952
 300.000453239
 300.00021935
 300.000015196
 300.000117644
 300.000135814
 299.999932145
 299.999762603
 299.999696634
 299.999483967
 299.999352484
 299.999623586
 299.999518228
 299.999324662
 299.999283429
 299.999418975
 299.999706118
 300.000024965
 300.000396637
 300.000320835
 300.000286918
 300.000167182
 299.999936248
 299.999847643
 300.000072751
 300.000244508
 300.000143995
 300.000163717
 300.000263061
 300.00017797
 299.999913591
 299.999910962
 300.000024323
 299.99978682
 299.999386304
 299.999276573
 299.999468511
 299.999741968
 299.999944375
 300.000215014
 300.00035906
 300.000142288
 299.999913398
 299.999906233
 299.999988912
 299.999916917
 299.99989037
 299.99995232
 300.00006982
 300.000278255
 300.000265327
 300.000158286
 300.000156165
 300.000212046
 300.000415538
 300.000532421
 300.000538245
 300.000524949
 300.000436296
 300.000301274
 300.000145469
 300.000040883
 300.000025013
 299.999989376
 299.999921577
 299.999826408
 299.999725994
 299.999726841
 299.999593494
 299.999526324
 299.999492695
 299.999463924
 299.999569081
 299.999546853
 299.999490749
 299.999552504
 299.999759393
 299.999922281
 299.999914218
 299.999752421
 299.999584251
 299.999418097
 299.999253998
 299.999329203
 299.999377816
 299.999391218
 299.99940966
 299.999380843
 300.000001222
 300.000089546
 300.000078057
 300.000121308
 300.000170774
 300.000144145
 300.000163872
 300.000217019
 300.000219554
 300.000301799
 300.000340234
 300.000340525
 300.000252405
 300.000103156
 300.000077508
 300.000028744
 299.999736227
 299.999579615
 299.999673234
 299.999747058
 299.999705745
 299.999651749
 299.999731001
 299.999708373
 299.999599146
 299.999662394
 299.999755572
 299.999801936
 299.999744613
 299.999540083
 299.999639654
 300.000038048
 300.000396843
 300.000774023
 300.001059975
 300.001021095
 300.000935146
 300.000871517
 300.000522571
 300.000107746
 299.999994226
 299.99994565
 299.999664853
 299.999407978
 299.999395544
 299.999528721
 299.999711765
 299.999747106
 299.99960145
 299.999652586
 299.999519576
 299.999006884
 299.999143535
 299.999757659
 299.999983508
 300.000112491
 300.00033655
 300.000667306
 300.000988449
 300.000339277
 299.999791061
 300.000173139
 300.000397848
 299.999987858
 299.999674965
 299.999617721
 299.999330394
 299.999334281
 299.999792469
 300.00016093
 300.000163659
 300.000058289
 300.000047853
 299.999953523
 299.999798957
 299.99978115
 299.999763164
 299.999677269
 299.999674219
 299.999819101
 299.999973516
 300.000022817
 299.999934991
 299.999812272
 299.999652693
 299.999585829
 299.99969824
 299.999726797
 299.999659122
 299.999608884
 299.999612652
 299.999771376
 299.999861546
 299.999916024
 299.999980447
 299.999737545
 299.999593316
 299.999701113
 299.999677437
 299.999690384
 299.999787857
 299.999927967
 300.000067774
 300.000047465
 299.999995099
 300.000095941
 300.000260038
 300.000278261
 300.000168966
 300.000050063
 299.999953369
 299.999981912
 299.999975216
 299.999918468
 300.000058315
 300.000283623
 300.000188308
 300.000267582
 300.000829447
 300.000683226
 299.999843594
 299.999632394
 300.000055159
 300.000351833
 300.000265178
 300.000211525
 300.000135056
 300.000190527
 300.000554422
 300.000484896
 300.000233394
 300.000122695
 299.999993598
 299.999782143
 299.999690333
 299.999780427
 299.999839987
 299.999770893
 299.999699136
 299.999722294
 299.999770808
 299.9998358
 299.999852511
 299.99980575
 299.999758317
 299.999733399
 299.999703303
 299.999655564
 299.999599808
 299.99967256
 299.999922846
 299.999956043
 299.99980746
 299.999864622
 300.000026314
 300.000104492
 300.000018867
 299.999949345
 300.000065813
 300.00037091
 300.000550303
 300.000387847
 300.000228199
 300.000199505
 300.000322918
 300.000383535
 300.000252375
 300.000088043
 299.99999153
 300.000128783
 299.999740664
 299.998759579
 299.998021892
 299.997908295
 299.998428381
 299.998963772
 299.999183927
 299.999384571
 299.999576753
 299.999818271
 300.000038111
 299.999886059
 299.999458368
 299.999126395
 299.998971409
 299.998771789
 299.998697742
 299.998792582
 299.999014129
 299.999333282
 299.99954728
 299.999642594
 299.999770965
 299.999682977
 299.999568753
 299.999878641
 300.000137428
 299.999991149
 299.999830681
 299.999743418
 299.999572237
 299.999481195
 299.999397716
 299.999332995
 299.999375173
 299.999552643
 299.999672739
 299.999554697
 299.999484064
 299.999455193
 299.999394482
 299.999399697
 299.999245429
 299.998846476
 299.998321654
 299.99783941
 299.997499793
 299.99732879
 299.997261599
 299.997462146
 299.997332468
 299.997180893
 299.997328079
 299.997593103
 299.998268936
 299.999097172
 299.99939558
 299.999383673
 299.999578022
 299.999507056
 299.999578554
 299.999922767
 300.00028027
 300.000527007
 300.000566521
 300.000324558
 300.000189412
 300.000172642
 300.000286003
 300.000275509
 300.000012233
 299.999809913
 299.999623132
 299.999559241
 299.999416446
 299.999186177
 299.999223587
 299.999225993
 299.999315668
 299.999793932
 300.000022338
 299.999818321
 299.999638452
 299.999981035
 300.000194382
 299.999995599
 299.999901683
 300.000001939
 300.000107018
 300.000087807
 300.000131723
 300.000166181
 299.999981069
 299.999740124
 299.999827634
 299.999945811
 299.999713035
 299.999327072
 299.999202011
 299.999433104
 299.99983921
 300.000007996
 300.000053048
 300.000180556
 300.000077146
 299.999879263
 299.99986148
 300.000019867
 300.000018326
 299.999928916
 300.000034167
 300.000138134
 300.000224595
 300.000149128
 300.000035124
 300.000004285
 300.000047474
 300.000243682
 300.000443659
 300.000594625
 300.000509513
 300.000443092
 300.000524143
 300.000444808
 300.00021918
 300.000047158
 299.999936473
 299.999835312
 299.999748834
 299.999710554
 299.999695377
 299.999538098
 299.999424253
 299.999412172
 299.999476067
 299.999650977
 299.999631769
 299.999475727
 299.99948256
 299.999682704
 299.999847447
 299.999874543
 299.99980749
 299.999708501
 299.999632004
 299.999554976
 299.999614035
 299.999679135
 299.999672711
 299.999763226
 299.999836329
 300.00016482
 300.000247664
 300.000188202
 300.000215823
 300.000242811
 300.000172427
 300.000132414
 300.000124083
 300.000118392
 300.000252516
 300.00035084
 300.000249937
 300.000060537
 299.999931339
 299.999911218
 299.999903194
 299.999744944
 299.999630451
 299.999700319
 299.999746215
 299.999653853
 299.999587518
 299.999639716
 299.999660477
 299.999739138
 299.999906464
 299.999953586
 299.999958312
 299.999916562
 299.999755166
 299.999735364
 299.999901457
 300.000112519
 300.000405725
 300.000835291
 300.000918646
 300.000682572
 300.000758819
 300.000860995
 300.000629544
 300.00027891
 300.000026352
 299.999755737
 299.999583052
 299.999418543
 299.99932199
 299.999416978
 299.999316802
 299.99931918
 299.999574711
 299.99972524
 299.999527911
 299.999675972
 300.000243661
 300.000471603
 300.000342105
 300.00028429
 300.000713042
 300.001111279
 300.000910417
 300.00043461
 300.000225759
 300.000191958
 299.999872385
 299.999700629
 299.999903203
 299.99990616
 299.999747036
 299.99993072
 300.00029614
 300.000339443
 300.000065113
 299.999907746
 299.999887745
 299.999867185
 299.999865662
 299.999841745
 299.999786005
 299.999736181
 299.999863582
 300.000002605
 300.000065573
 300.000005141
 299.999869152
 299.999805891
 299.999712563
 299.999668156
 299.999732317
 299.999752279
 299.999672299
 299.999655937
 299.999846282
 300.000058091
 300.000287107
 300.000131958
 299.999704131
 299.999656085
 299.999609445
 299.999479801
 299.999617976
 299.999887582
 300.000067809
 300.000195369
 300.000275685
 300.000294697
 300.000369379
 300.000499766
 300.000523472
 300.000449241
 300.000342533
 300.000185868
 300.000136674
 300.000147598
 300.000077602
 300.00010567
 300.00026993
 300.000269249
 300.000387588
 300.000682473
 300.000414323
 299.999828626
 299.999756089
 300.000149399
 300.000438572
 300.000313445
 300.000289347
 300.000300245
 300.000261656
 300.000446244
 300.000329737
 300.000096404
 300.000078517
 300.000099653
 300.000002998
 299.999882399
 299.999870974
 299.999911488
 299.999812371
 299.999791571
 299.999885418
 299.999892584
 299.999919035
 299.999894897
 299.999788601
 299.999735385
 299.999754066
 299.999733557
 299.999677032
 299.999637748
 299.9997939
 300.000115654
 300.00019418
 300.000095303
 300.000069792
 300.000134787
 300.000158832
 300.00001278
 299.999960569
 300.000074432
 300.000295186
 300.000443628
 300.000308467
 300.000129921
 300.000018052
 300.000064234
 300.00021706
 300.00023455
 300.000194033
 300.000208742
 300.000097602
 299.999422218
 299.998471813
 299.998000327
 299.998094663
 299.998543036
 299.99915053
 299.999621679
 299.99991811
 299.999942226
 299.999990641
 300.000244601
 300.000159843
 299.999861935
 299.999629734
 299.999260156
 299.99889485
 299.998904636
 299.999190744
 299.999338951
 299.999335029
 299.999442757
 299.999615392
 299.999608035
 299.999343727
 299.999021409
 299.999166431
 299.999655507
 299.999890191
 299.999859556
 299.999662373
 299.999416533
 299.999388554
 299.999438116
 299.999325147
 299.999216957
 299.999258292
 299.999299311
 299.999163535
 299.999091471
 299.999119701
 299.999119295
 299.999232593
 299.999238254
 299.998963304
 299.998491828
 299.998189785
 299.998178291
 299.998283119
 299.998257412
 299.998536617
 299.998633734
 299.998141906
 299.997659173
 299.997202366
 299.997201082
 299.997932923
 299.998547298
 299.998604983
 299.998652227
 299.998664295
 299.998716349
 299.999091133
 299.999791123
 300.000301601
 300.000435992
 300.000454932
 300.00055442
 300.000493162
 300.00041804
 300.000280034
 299.999971325
 299.999704386
 299.999461391
 299.999370183
 299.999181892
 299.99914797
 299.999295876
 299.999397302
 299.999375083
 299.999565947
 299.999815139
 299.999552933
 299.99933814
 299.999599537
 299.999911984
 299.999928832
 299.99987151
 299.999881622
 299.999911601
 299.999925338
 299.999983344
 299.999966345
 299.99984021
 299.999769883
 299.999810716
 299.999786116
 299.999596914
 299.999328356
 299.999274726
 299.999543613
 299.999866848
 299.999854467
 299.99974133
 300.000086963
 300.000380431
 300.000340469
 300.000375176
 300.000474852
 300.000437367
 300.00029594
 300.000224487
 300.000154767
 300.000152713
 300.000103884
 300.000011635
 299.999919027
 299.999855485
 299.999921239
 300.000081666
 300.000260081
 300.000288884
 300.000352184
 300.000477679
 300.000534184
 300.000423248
 300.000186163
 299.999991198
 299.999841158
 299.999757643
 299.999740923
 299.999724271
 299.999709331
 299.999622648
 299.999493961
 299.999531151
 299.999720373
 299.999761596
 299.999564162
 299.9994376
 299.999488643
 299.999589839
 299.999684746
 299.999712661
 299.999703907
 299.999835857
 299.999955369
 300.000013281
 300.000146622
 300.000161174
 300.000288433
 300.000413676
 300.000167198
 300.000254503
 300.00014045
 300.000105377
 300.00016432
 300.000197162
 300.000136304
 300.000076468
 300.000069963
 300.000094602
 300.000126659
 300.000018466
 299.999842893
 299.999785996
 299.999786988
 299.99978173
 299.999755805
 299.999698169
 299.999652313
 299.999649204
 299.99958077
 299.999449165
 299.999463472
 299.999636266
 299.999816491
 299.999883703
 299.999943097
 300.000037872
 299.999920491
 299.99972752
 299.999822827
 299.999964064
 299.999899572
 299.999989812
 300.000393472
 300.000685583
 300.000702946
 300.00076531
 300.000937633
 300.000925647
 300.000542831
 300.000045952
 299.999762444
 299.999761375
 299.999601762
 299.999406858
 299.999378617
 299.999238179
 299.999233989
 299.999448725
 299.999826085
 300.000049165
 300.000112777
 300.000261436
 300.000345748
 300.000348448
 300.000408044
 300.000586584
 300.000655518
 300.00067503
 300.00043991
 300.000123103
 300.000156715
 300.000101195
 299.999936275
 300.000043433
 300.000239113
 300.000219876
 300.000299058
 300.000430819
 300.000297029
 300.000024929
 299.999914757
 299.999904084
 299.999986299