# vtk DataFile Version 3.0
array.1
ASCII
DATASET STRUCTURED_POINTS
DIMENSIONS 1 321 161
ORIGIN 1500.01 799.99 0.001
SPACING 0 1.25 1.25
POINT_DATA 51681
 FIELD attributes 1
U 3 51681 float
3.73408733766 	0.2408485246 	8.07852049202e-05
 3.60451296638 	0.244165690982 	2.29212464334e-06
 3.4731706105 	0.156424467986 	1.44083268827e-05
 3.25130290923 	0.113442097405 	0.000128782675336
 3.25212000771 	-0.0622353277895 	0.00010426263137
 3.75370552829 	-0.263581613182 	-8.75189818735e-05
 4.11452792977 	-0.346037419994 	-6.47343700831e-05
 4.14296122826 	-0.376316106826 	4.50728022725e-05
 4.25064743076 	-0.322780351891 	-0.000184159560725
 4.40607477182 	-0.158501528983 	-0.000140746292561
 4.04756577217 	0.269514535507 	-0.000308587062138
 3.39827702924 	0.508451891299 	-0.00025833954888
 3.19365478942 	0.141656434383 	-0.000156653355098
 3.54742568301 	-0.118161380818 	5.97652165319e-05
 3.65895370525 	-0.35682695516 	0.00019750833492
 3.51487993568 	-0.506649279086 	-2.73751173286e-05
 4.31159915301 	-0.182682903238 	-4.87012141264e-06
 4.59879863779 	0.0459620766019 	7.37798493573e-05
 3.77194312918 	0.0349660749347 	-3.695710945e-05
 3.86705134382 	0.088767300883 	-0.000112312828922
 4.58724081249 	0.396819281116 	-0.000130443072146
 4.12997117015 	0.623255656857 	-0.000211597623647
 3.16669697586 	0.29093371949 	7.9680822346e-05
 3.17852037674 	-0.00831314366398 	4.61571562374e-05
 3.54132866918 	-0.0706037331937 	-0.000227977553668
 3.44518061404 	0.0872124355361 	-0.000416783799064
 3.46655473204 	0.0780281605658 	-0.000362979961554
 4.21462838354 	-0.250440062275 	-0.00013171342928
 4.66704180005 	-0.376900771146 	-0.00048541079832
 4.42665941952 	-0.356480702521 	-4.65243453382e-05
 3.98544919326 	-0.252795938705 	0.000145831473777
 3.52841477978 	-0.242894751029 	-0.000319898573142
 3.39906429849 	-0.220172695205 	-0.000657862298492
 3.22862954984 	0.2588619796 	-0.000296701608481
 2.8661238345 	0.885054670045 	3.49054219881e-05
 2.85660537032 	1.23110953631 	0.000222374537445
 2.77644572631 	1.2086546692 	0.000164612178009
 2.38932228154 	0.709506147513 	0.000326620328166
 2.50431339594 	0.12709046667 	0.000452892441383
 3.22815463144 	-0.344638790061 	0.000404710729282
 3.64334103694 	-0.385732615386 	-0.00012383170364
 3.5529170721 	-0.0452297137051 	-0.000444102128121
 3.1794011102 	0.24385453073 	-0.000199264700353
 2.87862361165 	0.384318126796 	-0.000295297836141
 2.52775609329 	0.740692221294 	-0.000664532536857
 2.20528534523 	1.06779672781 	-0.000469317622002
 2.55530849859 	0.751539632545 	6.38227824235e-05
 2.48750252522 	0.632561872246 	0.00040626072019
 1.83143156144 	0.5007770202 	0.000366816116172
 2.58726483561 	0.337485820101 	0.000125611739433
 3.07206744866 	0.66748207575 	-0.000456428746197
 2.43276981737 	0.858232725459 	-2.12958629692e-05
 2.68725940511 	0.503014432193 	0.000436255341972
 2.59149683482 	0.292810651605 	0.000247613038602
 2.6263513628 	0.586596206383 	8.23549157486e-05
 3.46704227711 	0.762985065871 	-7.20311965725e-05
 3.66693551398 	1.04798681987 	-0.000334418348559
 3.89635806237 	1.18144600582 	-5.43195259417e-05
 3.87237485328 	0.740552145121 	0.000258547567284
 2.94204956 	0.865394609355 	8.28726184458e-05
 2.58931342371 	0.930721685819 	-0.000701606464473
 3.57223595884 	0.327041950678 	0.000174852369637
 4.44849494577 	0.202938204622 	-5.15418963896e-05
 4.61556989154 	0.0408503796095 	-0.000517482578794
 4.41697768875 	-0.0529818829411 	-0.000436362065296
 3.98767400352 	0.123608665385 	-0.000216314165387
 3.93526171005 	0.128418868565 	-2.16856421842e-05
 4.0746988641 	-0.137763297692 	0.000236102206306
 3.884699403 	-0.556235834286 	0.000255514659217
 3.57268121356 	-0.734598907121 	0.00047149187872
 4.21638957322 	-0.637492350786 	0.000194446085721
 4.1207245727 	-0.0515282388813 	-0.000273211497935
 2.52159263822 	0.100187417867 	0.00035774631861
 2.09222470478 	-0.0390088129346 	0.000147172219331
 3.29195227224 	0.112991111657 	-0.000257026199143
 4.33557849717 	0.298634140743 	-0.000493094820905
 4.07903887002 	0.16445885412 	-0.000837646768087
 3.60250297157 	-0.327755251701 	-0.000261427462143
 3.72144163683 	-0.339815022424 	-0.000214458952576
 3.74821598529 	0.103142518037 	-0.000362679737539
 3.39544349158 	0.354926238235 	-0.000306923025319
 3.41411965531 	0.208777269269 	-0.000106898791486
 3.84804235355 	0.283990040983 	-0.000166336995327
 3.95262034984 	0.624695456507 	-0.00063048746056
 3.7554573438 	0.594275407556 	-0.000398958516891
 3.67290808039 	0.137730545886 	0.000375900258043
 3.68636521216 	-0.152211639004 	0.000268705963502
 3.48042635299 	-0.214299619122 	0.000170957802921
 3.47334084816 	-0.295250861143 	-7.42262238767e-05
 3.70124017571 	-0.435536259968 	-0.000681252743349
 3.8143023231 	-0.310948678521 	-0.000394760111708
 3.52973814656 	0.139708009612 	-0.000554979287204
 2.69348631004 	0.339805232044 	-0.000623416190169
 3.11123675443 	0.0603647079566 	-0.000299746401198
 4.02670790528 	0.374051218399 	-0.000130483255544
 3.82417427424 	0.612980531619 	-0.000260084433171
 4.30902343661 	0.0593852577142 	-0.000536565441165
 4.36644170166 	0.281219614637 	-0.000893807079867
 3.5013425533 	0.704861986275 	4.25119866209e-05
 3.31106922849 	0.480130348114 	7.75849011391e-05
 3.18538442015 	0.322206448588 	-0.000194913616027
 2.95057500289 	0.315965989851 	-0.000207409858524
 2.99187866359 	0.293114323746 	-3.69790941229e-05
 3.18229472011 	0.273204526228 	1.51197824038e-06
 3.1057762521 	0.050164804964 	-5.82703615436e-05
 3.03070915438 	-0.222227652261 	9.28598933255e-05
 3.34008249598 	-0.257918228358 	0.000108835290562
 3.50589628082 	-0.0221805062092 	-0.000160555616099
 3.26091170103 	-0.118286879101 	-0.000217789151547
 3.31600278475 	-0.324513342669 	3.05933876964e-06
 3.44932033279 	-0.272913241205 	-0.000183950614661
 3.13528014284 	-0.317822198361 	-0.00014112791779
 2.90698481211 	-0.164271084308 	-8.95021731098e-05
 2.98303860451 	0.0729156008023 	-7.10806452743e-05
 3.0712184869 	0.194606567655 	-0.00023818657964
 2.94397405033 	0.240559964273 	-0.000166088643933
 2.75126767753 	0.268487459323 	-0.000263850078461
 2.84992755726 	0.143838752196 	-0.000172202115667
 3.19060713272 	-0.0712096584788 	-0.00027815990114
 3.0190552856 	-0.00313020056063 	-0.00042613533797
 2.53736213856 	0.218928181874 	-0.000184636304372
 2.31832584128 	0.467868350767 	0.000278751951673
 2.31769046433 	0.377444148846 	3.21320590317e-05
 2.73889246566 	0.148489251167 	-0.000431896746242
 2.82533600843 	0.359159979712 	-0.000601806219833
 2.53368219662 	0.373231027272 	1.56610647176e-05
 3.1697968572 	0.19112120011 	-0.000414289077182
 3.51012777849 	0.309545244636 	-0.000326137405015
 2.87187061787 	0.271234187508 	0.000154728977733
 2.70124108261 	0.0225507071109 	0.00022739753726
 2.64338406118 	-0.130326908084 	-0.000363649015504
 2.57166877026 	-0.299284463575 	-0.000139205382394
 3.33734172068 	-0.0973570595335 	-0.00029755722543
 4.01782843938 	0.317994603317 	-0.000763402255256
 3.66343579934 	0.690309145368 	-0.000407592219069
 3.19556008004 	0.871889143206 	-8.98761078213e-05
 3.08944497982 	0.555024220632 	3.50899025631e-05
 3.14735677155 	0.33053003956 	-4.24417384682e-05
 3.00629138978 	0.414641634363 	-0.000243742653568
 2.79951240155 	0.547922276267 	-8.6714770495e-05
 2.69533491276 	0.50250510332 	-7.45992185282e-05
 2.80575323548 	0.251700170905 	5.28582093742e-05
 2.93059809732 	0.131131107085 	0.000255264904
 2.84631241028 	0.328432389701 	0.000156933204257
 2.55133559187 	0.503437209488 	0.000292846108935
 2.22177250659 	0.277332226959 	0.000310854948348
 2.52221207367 	0.294284297352 	0.000143920974493
 3.00572328942 	0.437576250149 	-0.000199085138341
 3.46917517765 	0.20940709635 	1.4809318331e-06
 3.5320246663 	0.0348228446643 	2.1846129208e-05
 2.72074243962 	-0.0770936898073 	-0.000226779571305
 2.24365227021 	0.0643073835584 	-1.41091882555e-05
 2.4946143193 	0.330293603161 	-5.86475415646e-05
 2.74038000995 	0.274808104074 	-4.41668968545e-05
 2.92329140503 	0.31364381533 	-8.88222441984e-05
 2.90834535407 	0.358701918376 	-0.000104137302837
 3.17226288164 	0.224318237625 	-0.000152294732881
 3.48895520136 	-0.0148421268656 	-0.000259082954818
 3.26254017881 	-0.169195907358 	-0.00011616177073
 2.89953502023 	-0.144113252416 	-7.23144748909e-05
 2.79269481026 	-0.325709504177 	8.30218083654e-05
 3.1382771708 	-0.204015017518 	-0.000101073606811
 3.70661515221 	0.217635560012 	-0.000218001698787
 3.73181349108 	0.585191051574 	-0.000399031841559
 3.68029102504 	0.975605882101 	2.85020389384e-05
 3.83651087145 	1.04953829202 	5.19708107559e-06
 3.39141099372 	0.943582264521 	1.66686248433e-05
 2.99378014396 	0.9162201846 	-5.19268833972e-05
 2.92331769994 	0.420821471716 	0.000433307131747
 2.78248711986 	-0.189182057003 	0.000406751288285
 2.61484545879 	-0.311372605913 	4.63941632415e-05
 2.28115517455 	-0.443988523583 	8.23197921259e-05
 2.24557294229 	-0.474610295154 	-5.1065725617e-06
 3.14719763672 	-0.0315283486467 	0.000132562227243
 3.3575381106 	0.136989547503 	9.82860849655e-06
 2.42065100592 	-0.350171968666 	-9.54009129719e-06
 2.2690789266 	-0.756627039821 	0.000369820193787
 3.43740652897 	-0.395148602266 	0.00039615697934
 4.66942222117 	0.182268199544 	0.00035980303731
 4.8568606666 	0.224463772347 	-0.000485645849451
 4.3898953138 	0.311353666456 	0.000104855801804
 3.74002038016 	0.826983706589 	0.000434708048715
 2.88911137997 	1.04354017844 	0.000426975974732
 2.58373417324 	0.754412972377 	0.000161085480382
 3.05237980536 	0.218095583613 	-0.000308694901674
 3.53580991498 	0.200435747231 	-0.000142458756708
 3.91773782577 	0.515714376549 	-7.79538043271e-05
 4.10373711757 	0.699754395534 	-0.000353459947824
 3.62889384196 	0.928357732545 	-0.000161420208889
 3.02325747128 	0.600941618881 	0.000328514236512
 3.03055329171 	0.239090012564 	0.00019827104776
 3.93429530362 	0.26442191966 	5.09487385721e-05
 4.02872731133 	0.492010170307 	-0.000793722912616
 2.7390777515 	0.628892501053 	0.000366457901164
 2.3563449384 	0.448803998258 	0.000279657395422
 2.87400417513 	0.278370881967 	-6.86432972335e-05
 3.18536973554 	-0.021832159408 	0.000305987646741
 2.84442159604 	-0.111220302983 	5.76692480638e-05
 2.53870722343 	-0.240772025462 	-1.46022221217e-05
 3.27321494095 	-0.242283362718 	-7.60274667703e-05
 3.81010442908 	0.281781828343 	-0.000407178804368
 3.70126823937 	0.328727464289 	-0.00028381151685
 3.70386301636 	0.312051666797 	-9.9552402891e-05
 3.45468244605 	0.439257393703 	-0.000144375820446
 3.21523428815 	0.117499894619 	0.00030264570125
 3.12136376349 	-0.11910477133 	0.000154093505439
 3.3273564947 	-0.170255838938 	0.000109444101817
 3.37659177166 	-0.308433645218 	9.04548422866e-05
 3.00748198664 	-0.301362262227 	0.00016747876944
 3.01274992345 	-0.185720863644 	-8.63722831568e-05
 3.19747511557 	-0.451140941764 	-4.46186980946e-05
 3.36057868466 	-0.842930112079 	3.75999950293e-05
 3.40996177021 	-0.97769868169 	-0.00038442500217
 3.02708627571 	-0.837580512019 	-6.26759876383e-05
 2.38991180693 	-0.291673772478 	-0.000338024348572
 2.27393485601 	0.162211549316 	4.45633310821e-05
 3.09295305788 	0.0964174910513 	-0.00012099114064
 3.4369814814 	-0.133960849611 	-0.000229706873158
 3.09140806883 	-0.334558118292 	-0.000147608324645
 2.64058788326 	-0.393827112058 	-0.000355525831714
 3.28400732992 	-0.0353441810252 	-0.000127480417359
 4.25235931739 	-0.146298445987 	-8.68206383424e-05
 4.2149950271 	-0.15065325576 	-0.000133589745374
 4.10064456784 	0.388717977457 	-0.000467058729592
 3.85052341459 	0.424132085502 	-0.000125442009696
 3.81955754222 	0.383981383326 	0.000219737909499
 4.18864739323 	0.388409456707 	-0.000401597718058
 4.18411436965 	0.190136124821 	-0.000302536823743
 3.980870064 	0.0873140569255 	-8.81532107788e-05
 4.47729039192 	-0.0241450115912 	-0.000154796521619
 4.24289121681 	0.295000144765 	-0.000438371750466
 2.70722415922 	0.537040741546 	-0.000107940784096
 1.97082241179 	0.496876491309 	0.000155208424053
 2.10261756492 	0.753980531792 	-0.000202402030769
 2.5781876021 	0.77013212213 	0.000295711752028
 3.39420696733 	0.739227991534 	0.00030779098486
 3.76488501788 	0.86196529015 	0.000121718119805
 3.77069490538 	0.940641326041 	-2.07495989958e-05
 3.6357571171 	1.01129080094 	3.75773561461e-05
 3.64009801818 	1.08729724988 	1.5637643117e-05
 3.7304184861 	1.15676758501 	-8.29679369328e-05
 3.26705841988 	1.11798695887 	0.000128700566347
 2.69618958393 	0.942177759958 	0.00035598140262
 2.40397401962 	0.408417269085 	0.000383315366804
 2.71221558629 	0.243702538732 	0.000230041697454
 3.31005807084 	0.56990617547 	-0.000325933220512
 3.21189902792 	0.617565588802 	-0.000275886671131
 2.84995293418 	0.554002064568 	-0.000183000915905
 2.63004231166 	0.379677783144 	-0.000161616765632
 2.85233420939 	0.342479686796 	1.84985903714e-05
 3.17307120568 	0.44083946183 	-0.000177502052073
 3.04826822647 	0.65695250913 	-0.000463926593286
 2.69589235979 	0.657985149318 	7.7377973615e-05
 2.47500537633 	0.23679318891 	0.00052123107024
 2.70728082521 	-0.0497269087753 	0.000130740812815
 3.12316360416 	0.105635058726 	-0.000149212223482
 3.21792219571 	0.315722355841 	-0.000126062228482
 3.34020634501 	-0.0978122534742 	7.67702693553e-06
 2.99588991899 	-0.250547311966 	-2.23050511694e-05
 2.43142803723 	-0.0561235858954 	-2.06474543588e-05
 2.68518210116 	0.0756858812734 	0.000110447759638
 2.77672932774 	0.293005126323 	-1.69595829351e-05
 2.64851122374 	0.139567138569 	0.000204894793468
 3.01252275081 	-0.294719793223 	0.00044125642456
 3.60781636455 	-0.500778332972 	5.12779433203e-05
 4.08601438189 	-0.0848576749545 	-0.000131270718215
 3.92617473598 	0.126435226462 	-0.000481591195117
 3.69402040573 	0.35502183592 	-0.000397745731803
 4.08248325376 	0.439565964015 	-0.000559058235722
 4.21780977062 	0.30078963386 	-0.00046607212116
 3.63682988964 	0.292922724509 	-0.000189476027266
 3.00175775721 	-0.201321606818 	0.000420149141465
 2.91268325942 	-0.432307859283 	-0.000262510253151
 3.22113889317 	-0.0632226743276 	-0.00030166040136
 4.09471353837 	0.377866006619 	-0.0001300551126
 3.58874251799 	0.913132833536 	-0.000335313811519
 2.2640336607 	0.835246744958 	1.73600794479e-05
 2.35306758029 	0.177113645249 	0.00013506167043
 2.59058657047 	-0.103759778868 	8.85538409375e-05
 2.77449620264 	-0.375144997189 	-8.58563549052e-05
 3.39961227161 	-0.555900488175 	-5.22255369092e-06
 4.38793534897 	-0.435999630291 	-0.000436832623344
 4.76913540243 	-0.81830064261 	-0.000504978539933
 4.36597514466 	-0.682961387862 	-0.000451623166799
 4.02938581965 	0.0969736838582 	6.59835446933e-05
 3.54432870886 	0.566480315845 	-0.000193315355218
 3.32806741384 	0.677922803555 	-0.000200073826364
 3.55932177035 	0.215145372062 	0.000242982006001
 3.87006826437 	-0.28313780368 	0.000194548318772
 4.24075611673 	-0.724663932518 	7.03363709945e-05
 3.72624507622 	-0.758562510578 	-0.000166678602677
 3.34300421302 	-0.406407507726 	-0.000241903336335
 3.95465807141 	0.183322608834 	2.38207907021e-05
 4.37759654396 	0.853751781781 	-0.000146561302614
 4.61094392842 	1.16508586757 	2.53361936716e-05
 4.1990420078 	0.921304298092 	0.000171758675585
 3.18913164232 	0.362886485808 	0.000296200530611
 2.6947896186 	-0.101739192086 	0.000487126864467
 2.92110059367 	-0.585081242935 	0.00014226635111
 3.75436618667 	-0.654245323442 	-0.000153081691564
 4.55542046672 	-0.725849829865 	1.44786839919e-05
 4.96369664922 	-0.547150432582 	-0.00043836424133
 4.63221461542 	0.242807436089 	-0.000711210299123
 3.61333498726 	0.610669982367 	-0.000293472854341
 2.91842458449 	0.633014547906 	-1.69374658825e-05
 2.99645061588 	0.465851594682 	8.01268673635e-05
 3.44336370329 	0.401936519833 	-5.43056958039e-05
 3.66322887846 	0.57244671406 	-0.000175705662445
 3.59778996533 	0.698524849171 	-0.000222236042266
 3.44519452023 	0.654913699311 	-7.44169808573e-05
 3.28566472923 	0.441208937601 	0.0001320675355
 3.57882046463 	0.315553388807 	0.000145209267249
 4.08969456787 	0.388049150142 	0.000110380389989
 4.1560947759 	0.195059192368 	-7.61108956753e-05
 3.92808778553 	-0.252451997111 	1.13019527877e-05
 3.63790584486 	-0.594969709155 	-4.27237960546e-05
 3.85977425235 	-0.675009113965 	0.000164554147698
 4.24359474207 	-0.450715233184 	-0.000337890428306
 4.30420271019 	-0.36453374778 	-0.000604439087876
 4.2235625792 	-0.192070089689 	-0.00064348491748
 3.95524195189 	-0.311370530825 	-0.000319298461613
 4.54242035091 	0.241860622918 	0.0528456618427
 4.57271387321 	0.289813525736 	0.0475802521303
 4.63313424248 	0.229232627654 	0.0737264725898
 4.66060076549 	0.167105640903 	0.097713743662
 4.58593281803 	0.112682637423 	0.0914312622459
 4.85413049781 	-0.0180830686614 	0.0850560517598
 5.29231769325 	-0.115927957048 	0.0683982243212
 5.41580039972 	-0.119442091056 	-0.0103772887541
 5.28615517502 	-0.0484447735061 	-0.12173480039
 5.22539783822 	0.174865714433 	-0.200657181891
 5.40688337978 	0.344400378125 	-0.193615788315
 5.1335909163 	0.394912514199 	-0.056585724456
 4.47824299623 	0.335747435677 	0.0818365148997
 4.44363231264 	0.171410115106 	0.152528519868
 4.83811177726 	0.0749046622936 	0.163647196533
 5.13608042374 	0.117106805358 	0.124105095448
 5.53970966748 	0.251923378204 	0.0436323980292
 5.8069822118 	0.275855962507 	-0.00585169945091
 5.73112626142 	0.214270369418 	-0.0165426381755
 5.65144751687 	0.239029609269 	-0.0240267969661
 5.49961872644 	0.28645450988 	0.0243073413088
 4.93898478712 	0.298661420097 	0.112609206612
 4.56597614907 	0.293334306017 	0.146447985598
 4.90199149063 	0.266377031672 	0.0125522226008
 5.43332619893 	0.205640415465 	-0.200244951571
 5.70790163598 	0.338826735 	-0.23870751589
 5.52498235205 	0.564975425154 	-0.0715958270603
 5.27260829854 	0.553976801051 	-0.0457996195958
 5.15528715341 	0.406855445794 	-0.0900043145278
 5.11419570998 	0.337934051272 	-0.10551344782
 5.19215908568 	0.290142646645 	-0.205579336275
 5.31773031854 	0.370526462673 	-0.281234937015
 5.59694726841 	0.631191766609 	-0.252927219607
 5.70471054183 	0.730561253287 	-0.167998209434
 5.34884517223 	0.822166653295 	-0.0596104259278
 5.06831867153 	1.03202619308 	0.0359500606622
 4.85808461447 	1.0629009517 	0.108495570313
 4.3684132345 	0.954816012257 	0.240570656048
 3.76631749343 	0.745035549109 	0.330305911594
 3.58652273987 	0.602638399973 	0.211114284335
 3.8347165963 	0.614187093428 	-0.0150849909841
 4.26622302622 	0.660256435682 	-0.138619573948
 4.43546838724 	0.787844613451 	-0.179922020375
 3.99106383462 	0.730703338917 	-0.188249845233
 3.67697759086 	0.330020167663 	-0.0987453107696
 3.77132958344 	0.147649098833 	0.145340708454
 4.21627692009 	0.183174389919 	0.346282694606
 4.5852105247 	0.225065692566 	0.352833295987
 4.47590399144 	0.25051626704 	0.236794907712
 4.76803983245 	0.257419374951 	0.0258305726506
 5.00044590609 	0.489538994662 	-0.0532974812862
 4.27750834274 	0.678531525853 	0.15421216817
 4.18529145517 	0.659458414288 	0.294285111641
 4.79683546135 	0.74399457407 	0.193881050077
 5.36360518762 	0.957879059842 	0.0712103979925
 5.66021432948 	1.16653946247 	0.0523729665169
 4.98972727963 	1.1759041402 	0.155377800426
 4.26918668055 	0.808182515663 	0.235305495841
 3.8733259244 	0.510032115686 	0.107826128813
 3.4315960094 	0.661297180241 	-0.0396299041484
 3.24720390994 	0.63794131127 	0.127960743052
 3.80721584663 	0.391306776707 	0.20735787432
 4.50430181457 	0.391403646614 	-0.0190100469555
 4.81895851048 	0.46332447258 	-0.233326058428
 4.97839349677 	0.493879299568 	-0.291913534365
 4.82988924957 	0.567298269924 	-0.158270715636
 4.5572687723 	0.660759200694 	0.0336601461458
 4.49470332235 	0.56993038191 	0.096944628239
 4.55228891065 	0.416175815524 	0.0454694487389
 4.54365576758 	0.319579430019 	0.0237697071247
 4.69696286053 	0.352538003671 	-0.0803404042872
 4.67942372103 	0.432590540693 	-0.0729331264553
 4.45938070266 	0.499764952003 	-0.0169376990642
 4.16852474506 	0.625989185227 	-0.0472623491221
 4.05243784406 	0.747729032335 	-0.0936514594876
 4.50610184109 	0.892433135073 	-0.161713253538
 4.69247756698 	0.838963848694 	-0.0472867649503
 4.5760584408 	0.607490909769 	0.0136290626757
 4.74174033101 	0.464828771961 	-0.086574090347
 4.68858542784 	0.264471790531 	-0.0955640367459
 4.45470880836 	0.0866073022081 	-0.0339112331565
 4.97633318257 	0.170881141207 	-0.121656343951
 5.48884014157 	0.177329207046 	-0.207108930245
 4.8852852757 	0.240360668656 	-0.15763339252
 3.88372357168 	0.363808250877 	0.0332106460452
 3.68154134294 	0.319335960001 	0.195693727337
 4.05078992037 	0.235399806278 	0.164137216927
 4.2390621133 	0.175794334518 	0.075947129952
 4.36862981286 	0.0764817817928 	-0.0744088723622
 4.59649109573 	-0.107627414924 	-0.200999214622
 4.72330405639 	-0.0340922386648 	-0.255458309631
 4.41715846633 	0.117178118188 	-0.222321651747
 4.02600225237 	0.26046785636 	-0.116603644891
 4.17989948718 	0.341405107167 	-0.0982320541804
 4.62292800231 	0.398502353911 	-0.122605760082
 4.75324043067 	0.412295679875 	-0.0430093242361
 5.05093400054 	0.0903044357265 	-0.150174448617
 5.1099747699 	0.038569707483 	-0.239597947608
 4.66065581598 	0.351446028827 	-0.0525964050526
 4.37394658398 	0.397288321153 	0.0460688859042
 4.34026682785 	0.226972533129 	0.0576644604057
 4.46587926246 	0.0203148469042 	0.0633756088464
 4.54331426416 	-0.093277572922 	0.0153503691826
 4.63746217282 	-0.109320119994 	-0.00596583174521
 4.62048031002 	-0.148952359223 	0.0313944082356
 4.61000592874 	-0.174844276663 	0.0501924196955
 4.84798718914 	-0.159360260704 	-0.0167581792272
 5.03194241199 	-0.0507198278951 	-0.0920309891236
 4.94402082657 	0.0485810039449 	-0.0519318324246
 5.04368084932 	0.0881799469918 	-0.0327623598322
 5.31701911373 	0.0326834776241 	-0.039244460051
 5.21737846109 	-0.0820343763884 	-0.0200813839392
 4.93789641923 	0.0660961943847 	-0.0181962293371
 4.90549625888 	0.208796398028 	-0.0200567152682
 5.04902133545 	0.194045384804 	-0.0116635235105
 5.33548309069 	0.200131300268 	-0.0228278148463
 5.18030915943 	0.278203371787 	-0.0312602127651
 4.86034746395 	0.343216326241 	-0.0347794441612
 4.93615793063 	0.340720376232 	-0.101180092975
 4.6380906886 	0.296946210719 	-0.166737040746
 4.05195301132 	0.14846535457 	-0.120884726271
 3.71517628917 	0.0311981330029 	0.0506910273343
 4.14432043596 	-0.0997553362411 	0.0817638693049
 4.9078091269 	-0.330733667012 	-0.13804337406
 4.84615721453 	-0.268041237113 	-0.170245849329
 4.60376603693 	-0.0220944714715 	-0.116523123723
 4.9370135647 	0.0995024095442 	-0.19396733474
 4.92504367168 	0.271616911691 	-0.0946936184152
 4.60969346686 	0.385557621196 	0.0789858162961
 4.49889174423 	0.449891932299 	0.0785032693185
 4.19330310041 	0.439846875101 	0.0256980441836
 4.0567588801 	0.528803540419 	-0.0325912473879
 4.44345586011 	0.589654737767 	-0.167924147481
 4.79378313537 	0.42728851336 	-0.279545376004
 4.60700573018 	0.433183375085 	-0.208775532962
 4.11541132613 	0.494657847412 	-0.0247623299428
 3.86945776807 	0.439425623126 	0.0712590021572
 4.19429720827 	0.364955918539 	0.055048917287
 4.58074272599 	0.296265071752 	0.00886654135757
 4.67082707453 	0.39547773472 	-0.0117246753293
 4.67570468897 	0.557089333018 	-0.0464594522529
 4.55783925693 	0.596561220826 	-0.0331354234086
 4.44017157476 	0.533684380179 	0.0171979877256
 4.35122937384 	0.462164462615 	0.0689917621473
 3.97477628151 	0.490865232821 	0.173199616997
 3.542294014 	0.357163682247 	0.191680170284
 3.77448956527 	0.31353933633 	0.0633244516954
 3.95614131296 	0.45669547726 	0.0440323456405
 3.85280642183 	0.467395135976 	0.110435984332
 3.97634216753 	0.359983033304 	0.110808710099
 4.00293695062 	0.283629516977 	0.0955556169015
 4.14873267062 	0.4178832593 	0.035761156595
 4.17310975268 	0.557639453767 	0.0146823312965
 4.15231394213 	0.646066005154 	-0.00711975725781
 4.2893359566 	0.731092514418 	-0.0628576019362
 4.17961833787 	0.612131301384 	-0.0243544081348
 4.13873515149 	0.534177636009 	0.0533936498125
 4.19806086358 	0.478334886991 	0.0908738866522
 4.16119937195 	0.314778218146 	0.0269620089409
 4.12976358552 	0.24786284586 	-0.0359870673341
 4.38814249738 	0.23669822572 	-0.103306138178
 4.74665867641 	0.295609354792 	-0.180890425197
 4.90949456528 	0.334130063464 	-0.214892025011
 4.79877435689 	0.449288475521 	-0.186795903469
 4.71282390357 	0.701359012661 	-0.0796943988109
 4.76604481831 	0.812308833731 	0.0136914203305
 4.36749225455 	0.750698348538 	0.0869597744697
 3.68659376553 	0.60275178333 	0.273392140252
 3.2345469509 	0.216804713002 	0.400227428536
 3.25317471722 	-0.046401561673 	0.262244900109
 3.51839386403 	-0.171702896115 	0.162626305769
 3.7791634184 	-0.383376853646 	0.136945945862
 4.07112010705 	-0.35466040089 	0.109884653464
 4.25573353444 	-0.305649728592 	0.144112988475
 4.26848086391 	-0.468858378059 	0.186901732829
 4.30225903832 	-0.763817953715 	0.195938593581
 4.60313082534 	-0.686657453378 	0.109237649103
 5.11323258657 	-0.218001950831 	-0.0703273179186
 5.46356849199 	-0.0520223297561 	-0.21220461784
 5.41052050983 	-0.0306006600861 	-0.139021589094
 5.25709964202 	0.140886448896 	-0.00687486006201
 5.14328253884 	0.530980889009 	0.0752539822615
 4.56818250084 	0.883172928222 	0.214761067011
 3.98935668371 	0.901535937382 	0.240750816454
 4.06167543239 	0.681042280761 	0.100819233717
 4.37119571986 	0.452341189595 	-0.0256612679708
 4.43799263548 	0.41467178271 	-0.0609879388062
 4.39855154811 	0.391931465892 	-0.0674998565305
 4.31091335467 	0.435963344167 	0.0171169038324
 3.97711076145 	0.384670682572 	0.152906268806
 3.95042738033 	0.268674434957 	0.136788991985
 4.42876146911 	0.255322072362 	-0.0512831561328
 4.36899443192 	0.229549360619 	-0.0658164556243
 3.76285162308 	0.256555034996 	0.0771912400451
 3.66236565825 	0.347919101787 	0.0820136340726
 3.76297090727 	0.362271962648 	0.126357602803
 4.0039531622 	0.199849789853 	0.143941535829
 4.25117510277 	0.179295420393 	0.109420006381
 4.11304802143 	0.146113881161 	0.0741594404319
 4.18539189479 	0.111704866401 	-0.0740273194013
 4.60073641264 	0.547218190268 	-0.121888925423
 4.80557045306 	0.708251413321 	-0.0662259657435
 4.72303031071 	0.584771980604 	-0.0676609600607
 4.29310186541 	0.574932060329 	0.0772032686406
 3.80459712788 	0.283974063661 	0.170330465191
 3.61765546479 	-0.0475260148866 	0.152436971794
 3.63772584699 	-0.239950033427 	0.145167975608
 3.72857196283 	-0.309413262334 	0.0982206839855
 3.9015636789 	-0.155302755096 	0.0570322653856
 3.84527339027 	-0.116940553971 	0.0649796282507
 3.55335972355 	-0.334342344451 	0.139056679177
 3.59823464886 	-0.476500989876 	0.0723639986807
 3.80459233036 	-0.566742311861 	-0.038874970211
 4.21839729146 	-0.403175973168 	-0.137245696023
 4.32088666504 	-0.0755882129758 	-0.167529966842
 3.93045038727 	0.09192145894 	-0.0338346890204
 3.82034953679 	0.124568037146 	0.0010729781744
 3.90813406613 	0.150056987095 	-0.0677797623406
 3.90649235144 	0.227830080803 	-0.144193548757
 3.64259046114 	0.221826283343 	-0.147306801502
 3.8855694886 	0.419840051014 	-0.142018580262
 4.44045063483 	0.617692970342 	-0.184633828528
 4.52764854225 	0.70636468844 	-0.270591458839
 4.45719065521 	0.861881186685 	-0.2518300794
 4.36482364574 	0.799930848588 	-0.106501348068
 4.3718406445 	0.850619780597 	-0.117345436152
 4.71307849148 	0.635077262566 	-0.149090833192
 5.0597522407 	0.550556879374 	-0.0808186356735
 4.70650174995 	0.536880648216 	0.0612335689119
 4.64472631392 	0.134965350798 	0.0340353720197
 4.7323831867 	-0.108556375837 	-0.0103477349069
 4.23162868093 	-0.0379924700079 	0.0660513824258
 4.21617792172 	0.116761350988 	-0.00550258684537
 4.47824680107 	0.0807014266908 	-0.023334934497
 4.71804449439 	0.178202953286 	0.00774038251065
 5.0862361126 	0.284301524666 	-0.0399207538902
 5.16645690778 	0.375709518088 	-0.0409870447024
 5.1426696845 	0.40739630248 	-0.0178780763813
 5.12714801122 	0.448031209587 	-0.0540042452045
 5.16999423805 	0.55726370431 	-0.129399795367
 5.0044495045 	0.655261876226 	-0.113803299661
 4.49868382107 	0.67218594353 	0.00686676506737
 4.21133270925 	0.654293657609 	0.112169449902
 4.30756209053 	0.651719427864 	0.113902100007
 4.65564973697 	0.794942049656 	-0.0362844928476
 4.92685155798 	0.904574108387 	-0.135736650056
 4.75641502274 	0.836556870374 	-0.00625309894408
 4.20696825443 	0.754246473733 	0.146080305926
 3.67837256237 	0.598359096478 	0.174435083391
 3.90998975438 	0.57660313491 	0.100921629444
 4.44305782288 	0.609947668666 	-0.0369412019318
 4.38081636101 	0.546095504816 	-0.0489028383809
 4.08414403812 	0.44630729978 	0.0809742420654
 3.88115631355 	0.339244461709 	0.125108232193
 3.62191692463 	0.301096467815 	0.101289274759
 3.58740035348 	0.371054486242 	0.0622442564981
 3.74046209985 	0.513166162902 	0.0725871475038
 3.82048089145 	0.357994568075 	0.0909385407975
 3.92692719999 	0.267269853658 	0.0198032818707
 3.92494878296 	0.426783242767 	0.0400863907136
 3.83282924762 	0.451650863024 	0.0850452348401
 3.83549992113 	0.397702537075 	0.0723417796721
 3.81286593794 	0.281643470946 	0.116078480067
 3.79897235501 	0.139896225205 	0.133581887381
 3.95367293068 	0.131427196651 	0.0227562631479
 4.4164877313 	0.315282531071 	-0.159440072539
 4.79324401107 	0.381771621759 	-0.206404019787
 4.72595175879 	0.250278684049 	-0.160333514977
 4.57604449807 	0.0167757388367 	-0.156948389925
 4.45717402648 	-0.225993861957 	-0.109296343121
 3.99402753636 	-0.210838763658 	0.109716340252
 3.62109905772 	-0.348491554907 	0.210010055721
 4.06767527179 	-0.357822264471 	0.0710379903906
 4.58661315738 	0.0066055484567 	-0.00737947299701
 4.63494302454 	0.0235460921665 	-0.0158150703864
 4.35311443165 	0.0673943079239 	0.0711405759273
 4.26769919263 	0.138123498578 	0.139319297472
 4.35322616877 	0.0206442995818 	0.0865763857509
 4.39833153434 	-0.0356471121996 	0.0442717181069
 4.4667846801 	-0.155224466103 	0.0177527503925
 4.59202942902 	-0.128969205839 	-0.123879422962
 4.87274674054 	0.117062890654 	-0.195190408152