# vtk DataFile Version 3.0
array.1
ASCII
DATASET STRUCTURED_POINTS
DIMENSIONS 1 321 161
ORIGIN 1500.01 799.99 0.001
SPACING 0 1.25 1.25
POINT_DATA 51681
 FIELD attributes 2
T 1 51681 float
299.999542883
 299.999496677
 299.999489299
 299.99948359
 299.99955528
 299.999892205
 300.000336818
 300.000379048
 300.000173723
 300.000234522
 300.000191516
 299.999920034
 299.999733197
 299.999690339
 299.9997474
 299.999877155
 299.999944309
 300.000020141
 300.0000817
 299.999958478
 299.999905275
 299.999903439
 299.999765763
 299.99973764
 299.999751206
 299.999840052
 300.000051261
 300.000168356
 300.000003416
 299.999721681
 299.999542139
 299.999528365
 299.99975697
 299.999838995
 299.999878473
 300.000160196
 300.000168685
 299.999782557
 299.999462084
 299.999457235
 299.999535834
 299.999347745
 299.999067363
 299.999055235
 299.999378908
 299.99973027
 299.999822109
 299.999761947
 299.999789178
 299.9996702
 299.999358239
 299.999320616
 299.999706301
 300.000110284
 300.000242127
 300.000212984
 300.000156315
 300.000181222
 300.000153524
 300.000041698
 299.999869804
 299.99977123
 299.999649093
 299.999294779
 299.999382668
 299.999535846
 299.999436578
 299.999595174
 299.999766549
 299.999628732
 299.999398646
 299.999508042
 299.999598492
 299.999705016
 300.000255769
 300.000427291
 300.000031938
 299.999816286
 299.999809574
 299.999744233
 299.999601983
 299.999503748
 299.99973131
 300.000074573
 300.000063923
 299.99992005
 299.999827881
 299.999823029
 299.999889165
 299.999808878
 299.999796259
 299.999858366
 299.999852151
 299.999921729
 300.000033847
 300.000149206
 300.000058436
 299.999781684
 299.99970236
 299.999724303
 299.999639779
 299.999635586
 299.999667725
 299.999655896
 299.99970691
 299.999796206
 299.999797431
 299.999753294
 299.999751412
 299.999809789
 299.999891831
 300.000000756
 299.999978824
 299.999855152
 299.999769783
 299.999672895
 299.999708878
 299.999841901
 299.999842655
 299.999811885
 299.999985715
 300.000160963
 300.000020529
 299.999769566
 299.999810814
 299.999775747
 299.999677495
 299.999666326
 299.99965356
 299.99975469
 299.999761735
 299.999835052
 300.000021133
 299.99990027
 299.999709677
 299.999685741
 299.999623574
 299.999511702
 299.999558743
 299.999641972
 299.999601061
 299.999717283
 299.999822761
 299.999729676
 299.999693283
 299.999699354
 299.999793042
 300.000033656
 300.000061561
 299.999847313
 299.999729265
 299.999723996
 299.999799275
 299.999877372
 299.999856136
 299.999738429
 299.999661708
 299.999658444
 299.999571456
 299.999580185
 299.999712678
 299.999763347
 299.999825838
 299.999812987
 299.999877371
 300.000051858
 299.999945099
 299.999661281
 299.99956795
 299.99965639
 299.999733466
 299.999781896
 299.999776573
 299.999634475
 299.999535309
 299.999728722
 299.999656371
 299.998932454
 299.998659982
 299.998754461
 299.998553417
 299.998666665
 299.999296888
 299.999916189
 299.999809995
 299.999475938
 299.999450774
 299.99944889
 299.999514742
 299.999753155
 300.000028083
 300.000378997
 300.000418906
 300.000131483
 300.000090196
 300.00011633
 300.000076951
 299.999900112
 299.999566323
 299.999476768
 299.999823042
 300.000010779
 299.999910527
 299.999737672
 299.999642093
 299.999634302
 299.999320172
 299.999235333
 299.999428883
 299.999481854
 299.999441847
 299.999548353
 299.999644989
 299.999409444
 299.999485301
 299.99973127
 299.999627682
 299.999518082
 299.999596889
 299.999777366
 299.999720497
 299.999842347
 300.000001134
 299.999901343
 300.000106055
 300.000213931
 299.999976529
 300.000034441
 299.999948289
 299.99956981
 299.99932599
 299.999130464
 299.999215025
 299.999381793
 299.999171262
 299.998817443
 299.99868891
 299.998705009
 299.998878627
 299.998923679
 299.998720136
 299.998515541
 299.998597321
 299.998969762
 299.999283335
 299.999277201
 299.999169671
 299.999487459
 300.000009385
 300.000138072
 299.999862214
 299.999641148
 299.999749513
 299.999920882
 300.000018494
 300.000080332
 300.000106238
 300.000191028
 300.000104832
 299.999911246
 299.999885912
 299.999954359
 299.999934995
 299.99981958
 299.999892391
 299.999932613
 299.999730982
 299.999631074
 299.999663315
 299.999835544
 300.000008953
 299.999788219
 299.999589658
 299.999666711
 299.999580402
 299.999562881
 299.999708277
 299.999681603
 299.999689129
 299.999777516
 300.000047761
 300.000570067
 300.000562857
 300.000101627
 300.000004018
 300.000028214
 300.000046092
 299.999989785
 299.999998716
 300.000224704
 300.000162981
 299.999981432
 300.000003676
 300.000022229
 300.000099419
 300.000174393
 299.99998051
 299.999696691
 299.99961202
 299.999490936
 299.999369625
 299.999412731
 299.999395161
 299.999394898
 299.999419263
 299.999400597
 299.999400602
 299.999454145
 299.999493878
 299.99952588
 299.999631075
 299.999754722
 299.999919868
 299.99999313
 300.000148795
 300.000301203
 300.000212474
 300.000220641
 300.000330651
 300.000338
 300.00013627
 299.999586425
 299.999609942
 299.999692028
 299.999741652
 299.999769208
 299.999996486
 300.000315354
 300.000359573
 300.000213072
 300.000163873
 300.000208321
 300.000113402
 299.999901785
 299.99983435
 299.999899387
 299.999969753
 299.999909117
 299.999890198
 299.999873919
 299.999827508
 299.999922209
 299.999915067
 299.999746463
 299.99985288
 300.000066527
 300.00004555
 299.999911711
 299.999895595
 299.999925332
 299.999816033
 299.99975616
 299.999624526
 299.999957928
 300.00058161
 300.000265081
 299.999822395
 300.000424497
 300.000670535
 300.000010156
 299.999670615
 299.999576411
 299.999420415
 299.999254205
 299.999172585
 299.999591626
 300.000070587
 299.999931878
 299.999684563
 299.999641626
 299.999581097
 299.999291715
 299.999107154
 299.999125093
 299.999376485
 299.999782381
 299.999863687
 299.999855566
 300.000069987
 300.0000752
 299.999942446
 299.999895348
 299.999804562
 299.999726475
 299.999416084
 299.999360319
 299.999418768
 299.999337818
 299.999487964
 299.999644488
 299.999566546
 299.999431462
 299.999501124
 299.999470199
 299.999532769
 299.999995962
 300.000170182
 299.999926815
 299.999817765
 299.99987401
 299.999838989
 299.999779765
 299.999879312
 300.000028588
 300.000127557
 300.000099719
 299.99996013
 299.999863108
 299.99990213
 299.999931527
 299.999722763
 299.999648844
 299.999866268
 299.999999497
 300.000011015
 300.000077357
 300.000158674
 300.000121685
 299.999884311
 299.999765021
 299.999740076
 299.999579734
 299.999615416
 299.999719091
 299.999723204
 299.999756668
 299.999766971
 299.999782848
 299.999869786
 299.999900424
 299.999827001
 299.999879487
 299.99990811
 299.999736196
 299.999684905
 299.999798706
 299.999883365
 299.99991657
 299.99997715
 300.000051871
 299.999942206
 299.999750726
 299.999726645
 299.999843212
 300.000073434
 300.000212267
 299.999936937
 299.999757376
 299.999762986
 299.999800496
 299.999960089
 299.999855241
 299.999719124
 299.999825179
 299.999839427
 299.999798329
 299.999785998
 299.999749677
 299.999682581
 299.999733859
 299.999867298
 299.999751582
 299.999737191
 299.999826041
 299.9997478
 299.999725229
 299.999770676
 299.999849633
 299.999983515
 299.999990218
 299.999879047
 299.999787924
 299.999748862
 299.999755076
 299.999778194
 299.999788015
 299.999769034
 299.999751194
 299.999771823
 299.999735193
 299.999772755
 300.000010341
 300.000061633
 300.000002732
 299.999979454
 300.000099962
 300.000302555
 300.000149308
 299.999754185
 299.999577364
 299.999568822
 299.999580024
 299.999635396
 299.999501688
 299.999237024
 299.999104772
 299.99918542
 299.999109364
 299.998938896
 299.999152764
 299.999249233
 299.999056998
 299.998862332
 299.999144688
 299.999522431
 299.999228068
 299.999038769
 299.999253063
 299.999404367
 299.999484185
 299.999649973
 299.999817433
 299.999965511
 299.999996625
 300.000001402
 300.000102724
 300.00017771
 300.00024232
 300.000017848
 299.999566333
 299.999505182
 299.999940455
 300.000005051
 299.999750504
 299.999743484
 299.999749749
 299.999623186
 299.999265037
 299.999125142
 299.999411573
 299.999595541
 299.999518166
 299.999580405
 299.999585168
 299.999227716
 299.999209989
 299.999540146
 299.999543692
 299.999402988
 299.999260179
 299.999304087
 299.999377986
 299.999465764
 299.999654868
 299.999730203
 299.999960421
 300.000112921
 299.999869083
 300.000018774
 300.000088887
 299.999642272
 299.999341419
 299.999198014
 299.999513189
 299.999759982
 299.999541346
 299.999139099
 299.998847543
 299.998950799
 299.999181577
 299.999279596
 299.999121366
 299.998813666
 299.998736504
 299.999022429
 299.999371412
 299.999487756
 299.999540211
 299.999734657
 299.999819053
 299.999983064
 300.000156917
 299.999981361
 299.999894314
 299.999921165
 299.999940126
 299.999998218
 300.000034065
 300.000154484
 300.000059065
 299.999821274
 299.999896741
 300.000067279
 300.000068482
 299.999989606
 300.000027258
 300.000032968
 299.999788964
 299.999565338
 299.99954823
 299.999768051
 300.000005096
 299.999862996
 299.999628404
 299.999666708
 299.99955275
 299.999586006
 299.999886957
 299.999729294
 299.999602014
 299.999729299
 299.999780937
 300.000109673
 300.000371731
 300.000325306
 300.000540656
 300.000548568
 300.000232411
 300.000099774
 300.000216077
 300.000395616
 300.000381162
 300.000287914
 300.000153146
 299.999911588
 299.999880848
 300.000011082
 300.000050423
 299.999931789
 299.999774305
 299.999579607
 299.999556935
 299.999688614
 299.999473541
 299.999271312
 299.999342239
 299.999448381
 299.999469288
 299.999492322
 299.999536215
 299.999584535
 299.999668839
 299.999716031
 299.999834726
 299.999975489
 300.00006962
 300.000055329
 299.999944458
 299.999995782
 300.000126907
 300.000181612
 300.000099199
 299.999669168
 299.999693244
 299.999821623
 299.999949911
 299.999983755
 300.000108027
 300.000296237
 300.000351
 300.000261368
 300.000116631
 300.000274497
 300.000362421
 300.00010781
 299.999987679
 300.000012656
 300.000070823
 299.999975106
 299.99978833
 299.999629365
 299.999633741
 299.999813747
 299.999889602
 299.999823159
 299.999866038
 300.000045452
 299.999965629
 299.999708075
 299.999687843
 299.999865994
 300.000008417
 300.0001688
 300.000093261
 300.000315235
 300.001016181
 300.000734089
 300.00005392
 300.00071341
 300.001225106
 300.000456765
 299.99990138
 299.999723411
 299.999574208
 299.99951744
 299.999365901
 299.999655124
 300.000068891
 299.999962076
 299.999747385
 299.999521851
 299.999504586
 299.999340923
 299.999229177
 299.999244385
 299.999291562
 299.999538114
 299.999849603
 300.000308952
 300.000448073
 299.999951007
 299.999437997
 299.999551351
 299.99979247
 299.999863604
 299.999619434
 299.999477432
 299.99943964
 299.999301304
 299.999414534
 299.999604977
 299.999650893
 299.999699802
 299.99985212
 299.999746317
 299.999504715
 299.999701626
 300.000023602
 299.999847368
 299.999636603
 299.999754232
 299.999833097
 299.999922496
 300.000188209
 300.000234315
 300.000043664
 299.999904855
 299.999830245
 299.999842952
 299.999847407
 299.999770723
 299.99956241
 299.999446318
 299.999728837
 300.000013261
 299.99998878
 300.000010288
 300.000094497
 300.000096179
 299.999887255
 299.999759342
 299.99971456
 299.999482698
 299.999517764
 299.999679375
 299.999681239
 299.999686098
 299.999720579
 299.999773819
 299.999867404
 299.999878646
 299.999810225
 299.999869666
 299.999800268
 299.999679798
 299.999820578
 300.000108347
 300.000308378
 300.000281415
 300.000206654
 300.000193
 299.999905318
 299.999497801
 299.999694389
 300.000344112
 300.000699882
 300.000615572
 300.000247631
 300.000049335
 300.000142859
 300.000336819
 300.000551585
 300.000287987
 299.99981505
 299.999645347
 299.999666459
 299.999861564
 299.999985618
 299.999933409
 299.999860846
 299.999897229
 300.000031429
 299.999920239
 299.99982267
 299.999829587
 299.999760267
 299.999743344
 299.999755237
 299.999877374
 299.999931242
 299.999818937
 299.999775577
 299.999700517
 299.999640033
 299.99964771
 299.999682858
 299.999749004
 299.999848409
 299.999899261
 299.999915122
 299.999905521
 300.000018831
 300.000312336
 300.000377516
 300.000220338
 300.000162856
 300.000339866
 300.000486476
 300.000302647
 299.999898343
 299.999658909
 299.99957192
 299.999514743
 299.999367766
 299.998919669
 299.998640555
 299.998609702
 299.998601819
 299.998762863
 299.999284479
 299.999754873
 299.999856657
 299.999778416
 299.999292636
 299.999035493
 299.998863187
 299.998551244
 299.998782531
 299.999182698
 299.999268892
 299.9993902
 299.999653742
 299.999643143
 299.999572881
 299.999682623
 299.999854658
 299.99999464
 300.0001424
 300.000305716
 300.000115415
 299.999796692
 299.999830245
 300.000049695
 299.999937326
 299.999645163
 299.999765899
 299.999895793
 299.999647908
 299.999321788
 299.999240404
 299.999553005
 299.999783294
 299.999735816
 299.999687736
 299.999431518
 299.998829615
 299.998667186
 299.999288421
 299.999472508
 299.999031261
 299.998513814
 299.998411985
 299.998580136
 299.998536033
 299.998960051
 299.999598563
 299.999811889
 299.999868056
 299.999780888
 300.000028793
 300.000101077
 299.999788538
 299.999703585
 299.999484587
 299.999757445
 300.000151812
 300.000130636
 299.999831954
 299.99954112
 299.999764745
 299.999836707
 299.999631989
 299.999438123
 299.99920461
 299.998965383
 299.999111047
 299.99960997
 299.999748716
 299.99971446
 299.999784164
 299.999691881
 299.999804207
 300.000360844
 300.000531015
 300.000256514
 300.000010356
 299.999846975
 299.999836666
 299.999886832
 300.000126991
 300.000122344
 299.999897847
 299.999989212
 300.000225982
 300.000258864
 300.000100346
 300.00006454
 300.000112124
 299.999884469
 299.999526993
 299.999437018
 299.999656347
 299.999898585
 299.9998745
 299.999787737
 299.999895776
 299.999841051
 299.999878086
 300.000178649
 300.000005327
 299.99975378
 299.999776938
 299.999607368
 299.999721988
 300.000186543
 300.00045818
 300.000711016
 300.000695378
 300.000364925
 300.000305776
 300.000427346
 300.000513637
 300.000599823
 300.000582623
 300.000305307
 299.999914293
 299.999810474
 299.999913354
 300.000061468
 300.000074358
 299.999927133
 299.999720418
 299.999733736
 299.999876586
 299.999665591
 299.999369122
 299.999380467
 299.999510455
 299.999519681
 299.999536463
 299.999595417
 299.999712157
 299.999809408
 299.99977006
 299.999709225
 299.999738332
 299.999703578
 299.999536565
 299.999501976
 299.999604846
 299.99970618
 299.99977896
 299.999764713
 299.999777216
 299.999766143
 299.999818732
 299.999932434
 300.000035895
 300.000131979
 300.000259473
 300.000320317
 300.000265532
 300.000217123
 300.000327624
 300.000423883
 300.00028626
 300.000131519
 300.000093891
 300.000102861
 299.999905265
 299.999684839
 299.999630301
 299.999652378
 299.999673637
 299.999722676
 299.999814417
 299.999763313
 299.999624312
 299.999550982
 299.999665093
 299.99985802
 299.99990677
 299.999918571
 300.000183859
 300.000340043
 300.000393701
 300.000698075
 300.000790865
 300.00080248
 300.001018177
 300.000916377
 300.000235521
 299.999799409
 299.999797865
 299.999693854
 299.999568699
 299.999426306
 299.99950404
 299.999725993
 299.999885355
 299.999959035
 299.999699862
 299.999658426
 299.999577945
 299.999517164
 299.999846936
 299.999889982
 299.999711
 300.00014376
 300.000857627
 300.000838744
 300.000210175
 299.999277983
 299.999276611
 299.99995029
 300.00013766
 299.999850467
 299.999607717
 299.999451756
 299.999217467
 299.999399856
 299.999785148
 299.99991414
 299.999926324
 300.000056735
 300.000024348
 299.999705024
 299.999711634
 300.000004071
 299.999850224
 299.999556047
 299.999592638
 299.999742897
 299.999912617
 300.000070812
 300.000069649
 299.999873238
 299.999629024
 299.999637214
 299.999786819
 299.99970922
 299.999573491
 299.999500065
 299.999502317
 299.999713115
 299.999834882
 299.999730513
 299.999830536
 299.999926584
 299.999834668
 299.999770343
 299.999743527
 299.999702102
 299.999578515
 299.999649236
 299.99982218
 299.999816166
 299.999760199
 299.999835759
 299.999914367
 299.999886777
 299.999790369
 299.999762984
 299.999777446
 299.999734139
 299.999787415
 299.999951491
 300.000195972
 300.000344954
 300.000219011
 300.000275746
 300.000464297
 300.000051317
 299.99952509
 299.999881571
 300.000592833
 300.00064488
 300.000394131
 300.000265662
 300.000185248
 300.000315588
 300.000585391
 300.000756672
 300.000567791
 300.000128927
 299.999767936
 299.999585587
 299.999778642
 300.000000728
 299.999900888
 299.999784798
 299.999800955
 299.999880733
 299.999878062
 299.999847978
 299.999827749
 299.99978875
 299.999758765
 299.999686161
 299.999746143
 299.999768424
 299.99962582
 299.999581723
 299.999599495
 299.999590413
 299.999627455
 299.999751311
 299.999865505
 299.999963956
 299.999981331
 299.999936958
 299.999966949
 300.000199688
 300.000392507
 300.00034449
 300.000209464
 300.000229722
 300.000474999
 300.00050044
 300.00028175
 300.00000725
 299.999778798
 299.999829023
 299.999714313
 299.99911488
 299.998361241
 299.998122012
 299.998423893
 299.998650004
 299.99888687
 299.999290363
 299.999556378
 299.999867349
 300.000042936
 299.999663922
 299.999190683
 299.998724412
 299.998597215
 299.998883451
 299.999030863
 299.998892481
 299.999077665
 299.999606579
 299.99965351
 299.999536154
 299.999699661
 299.999770342
 299.999835001
 300.0000664
 300.000201217
 300.000026517
 299.999928323
 299.999979249
 299.999872069
 299.999736627
 299.99954834
 299.999592924
 299.999750722
 299.999697763
 299.999572576
 299.999510836
 299.999654804
 299.999771023
 299.999740653
 299.999582969
 299.999247208
 299.998682544
 299.998417847
 299.998729319
 299.998617485
 299.998041042
 299.997657792
 299.997410728
 299.997275103
 299.997403115
 299.998027591
 299.998951919
 299.999499121
 299.999692938
 299.999803782
 300.000062574
 300.000038501
 299.999828785
 299.999996228
 299.999996379
 300.000077451
 300.000363504
 300.000441239
 300.000282673
 300.000140818
 300.000221475
 300.000114737
 299.999801401
 299.999624517
 299.9995763
 299.999410147
 299.999351355
 299.999692825
 299.999610169
 299.999416395
 299.999382994
 299.999543702
 299.999822407
 300.000170721
 300.000535725
 300.000410748
 300.000265878
 300.000034363
 299.999792513
 299.999793274
 300.000103742
 300.000227041
 300.000090808
 300.000118738
 300.0002649
 300.000181717
 299.999896477
 299.999935135
 300.000082514
 299.999847336
 299.99945761
 299.999345333
 299.999499344
 299.999740582
 299.999873858
 300.000013801
 300.000192986
 300.000106242
 299.999980229
 300.000054619
 300.000050789
 299.999890723
 299.999828679
 299.999825551
 299.999938874
 300.000222943
 300.000281147
 300.00021853
 300.000240347
 300.000297049
 300.000462517
 300.000534871
 300.000555561
 300.000547743
 300.00048366
 300.000386256
 300.000168605
 300.000022703
 300.00000476
 299.999984012
 299.999935723
 299.999851588
 299.999757422
 299.999734557
 299.99963027
 299.999558958
 299.999502916
 299.999495126
 299.999571375
 299.999510985
 299.999478197
 299.999571316
 299.999770647
 299.999885727
 299.999851113
 299.999706743
 299.999537447
 299.999351054
 299.999162079
 299.999236122
 299.999320948
 299.999360513
 299.999465258
 299.99951226
 299.999929708
 299.999991741
 300.000000465
 300.000074631
 300.00014325
 300.000124211
 300.000161503
 300.000208707
 300.000201226
 300.000296179
 300.000376459
 300.000402783
 300.000301489
 300.000138684
 300.000114453
 300.000092752
 299.999772991
 299.999576391
 299.999678877
 299.999725527
 299.999636854
 299.999580606
 299.999662351
 299.999623483
 299.999482973
 299.999545994
 299.999748135
 299.999918296
 299.999881266
 299.999709036
 299.999804104
 299.999989883
 300.000224553
 300.00059904
 300.000840402
 300.000968936
 300.000979085
 300.00069851
 300.000210683
 299.999871735
 299.999838609
 299.999817965
 299.999630593
 299.999457409
 299.999457833
 299.999600738
 299.999818973
 299.999854141
 299.999577965
 299.999534558
 299.999491222
 299.999277119
 299.999586391
 299.999968603
 299.999960188
 300.000108653
 300.00046827
 300.000805942
 300.000931842
 300.000178262
 299.999817999
 300.000270451
 300.00035765
 299.999947057
 299.99968108
 299.999639117
 299.999370293
 299.999384306
 299.999820127
 300.000119043
 300.00009416
 299.999968712
 299.99987893
 299.999799533
 299.999751773
 299.999765081
 299.999744374
 299.999682855
 299.999678898
 299.999794756
 299.9999302
 299.999976925
 299.999955464
 299.999867152
 299.999684878
 299.999642118
 299.99974532
 299.999741752
 299.999649119
 299.999578638
 299.999657533
 299.999853739
 299.999822051
 299.999811868
 299.999955636
 299.999759319
 299.99956854
 299.999616575
 299.99965012
 299.999714995
 299.99975546
 299.999881142
 300.000050192
 300.000055397
 300.000013805
 300.000095647
 300.000230012
 300.00022908
 300.000105648
 299.999994021
 299.999900046
 299.999891024
 299.999895298
 299.999887811
 300.000043657
 300.000224305
 300.000140226
 300.000332406
 300.000745651
 300.000342933
 299.999642201
 299.999721289
 300.000184645
 300.000306652
 300.000186313
 300.000209442
 300.00021833
 300.000310572
 300.000496877
 300.000365679
 300.000221207
 300.000131697
 299.999951265
 299.999722844
 299.999672272
 299.999801007
 299.999872466
 299.999783324
 299.999726353
 299.999815332
 299.99985429
 299.99988169
 299.999879844
 299.999848652
 299.999834109
 299.999787178
 299.999733518
 299.99964511
 299.99955495
 299.999621895
 299.999845559
 299.999915161
 299.999848084
 299.999912011
 300.000024511
 300.000090226
 300.000012888
 299.999929873
 300.000037365
 300.000333449
 300.000505559
 300.000339387
 300.000180159
 300.000199396
 300.000370383
 300.000429936
 300.000282789
 300.000067485
 299.999929079
 300.000097453
 299.999704495
 299.998742597
 299.998041406
 299.997889403
 299.998403904
 299.998953795
 299.999106118
 299.999241891
 299.999445914
 299.999802425
 300.00009729
 299.999894894
 299.99947407
 299.999133333
 299.998940048
 299.998757535
 299.998694942
 299.998735821
 299.998974154
 299.999349327
 299.999551477
 299.999664526
 299.999761962
 299.999668177
 299.999685048
 300.000030746
 300.000223208
 300.000024331
 299.999879351
 299.999822805
 299.999644894
 299.999552061
 299.999447528
 299.999386728
 299.999424487
 299.999563511
 299.999597782
 299.999435716
 299.999434578
 299.999489439
 299.999458744
 299.999403799
 299.999209041
 299.998823504
 299.998376751
 299.998040787
 299.997702143
 299.997401121
 299.997321273
 299.997363069
 299.997181699
 299.997120591
 299.997268502
 299.997708058
 299.998526344
 299.999296026
 299.999573609
 299.999643619
 299.999771875
 299.999600712
 299.99965794
 300.000007902
 300.000328792
 300.000517191
 300.000542323
 300.000413906
 300.000294339
 300.000152207
 300.00020085
 300.000226059
 299.999986248
 299.999794251
 299.999626964
 299.999505917
 299.999486729
 299.999346631
 299.999366093
 299.999299276
 299.99933696
 299.999768899
 299.99991848
 299.9997957
 299.99974136
 300.000086944
 300.000142883
 299.999855567
 299.999831649
 300.000020375
 300.000116841
 300.000064657
 300.000113379
 300.000196813
 300.000005411
 299.99973178
 299.999857444
 299.999996725
 299.999736935
 299.999356339
 299.99924365
 299.999421844
 299.999799797
 299.999983356
 299.999966546
 300.000107467
 300.000059592
 299.999912029
 299.999944261
 300.000028645
 299.999956459
 299.999868622
 299.999948852
 300.000038601
 300.000165634
 300.000121045
 300.000049039
 300.000049488
 300.0001142
 300.000313531
 300.000465006
 300.000553548
 300.000456042
 300.000457838
 300.000551627
 300.000418478
 300.000197103
 300.00003527
 299.999920452
 299.999823362
 299.999752672
 299.999703103
 299.999656692
 299.999512571
 299.99942489
 299.999442263
 299.999543518
 299.999692916
 299.999613314
 299.999454135
 299.999492499
 299.99969991
 299.999818098
 299.999802171
 299.999749341
 299.999657773
 299.999532388
 299.999416467
 299.999482837
 299.99956661
 299.999622676
 299.999745764
 299.999817839
 300.000118962
 300.000182008
 300.000143703
 300.000201905
 300.000223519
 300.00015214
 300.000128106
 300.000120656
 300.000106368
 300.0002363
 300.000356397
 300.000287438
 300.00008602
 299.999955452
 299.999959536
 299.999960862
 299.999779942
 299.999624298
 299.999677757
 299.999692248
 299.999576819
 299.999553545
 299.999624565
 299.999588392
 299.999631695
 299.999808313
 299.999890244
 299.9999307
 299.99987744
 299.999725463
 299.999630169
 299.999695372
 299.999931744
 300.000281021
 300.000686393
 300.000803733
 300.000597389
 300.000514165
 300.000544475
 300.000391711
 300.000106779
 299.999892051
 299.999689819
 299.999572774
 299.99946044
 299.999431535
 299.999627451
 299.99960787
 299.999485275
 299.999508269
 299.999557199
 299.999512538
 299.999824638
 300.000322083
 300.000387665
 300.000200653
 300.000279799
 300.000814382
 300.001144217
 300.000751649
 300.000248264
 300.000225532
 300.000232957
 299.999870175
 299.999735836
 299.999965962
 299.999898853
 299.99969302
 299.99988778
 300.000224509
 300.000239919
 299.999947333
 299.999782286
 299.999830808
 299.999871139
 299.999866665
 299.999815984
 299.999776318
 299.999767414
 299.999892062
 300.000021524
 300.000036959
 299.999974798
 299.999900807
 299.99981412
 299.999700917
 299.9996855
 299.999749121
 299.999746055
 299.999663879
 299.999723281
 299.99990097
 299.999957463
 300.000174752
 300.000164432
 299.99975309
 299.999617053
 299.999534858
 299.999459547
 299.999666201
 299.999902413
 300.000062542
 300.000205473
 300.000266934
 300.000273008
 300.000333907
 300.000440349
 300.000444391
 300.000364418
 300.000269569
 300.000131537
 300.000088368
 300.000099925
 300.000037064
 300.000075769
 300.000230603
 300.000261511
 300.000445355
 300.000654397
 300.000250075
 299.999758621
 299.9998612
 300.000242504
 300.000408257
 300.000294067
 300.000359368
 300.000376371
 300.000368235
 300.000521603
 300.000299361
 300.000075268
 300.000085071
 300.00006406
 299.999915125
 299.999793947
 299.999860022
 299.999960996
 299.999830741
 299.999788166
 299.999926253
 299.99994979
 299.999964656
 299.999926865
 299.999839011
 299.999808723
 299.99980393
 299.999762323
 299.999688318
 299.999659565
 299.999815274
 300.000117497
 300.000249787
 300.000215486
 300.000163146
 300.000162695
 300.000182052
 300.00004098
 299.999948288
 300.000051533
 300.000270082
 300.000398788
 300.000276776
 300.000138886
 300.00006545
 300.000136841
 300.000259682
 300.000219125
 300.000142373
 300.000158636
 300.0001335
 299.999443695
 299.998412393
 299.997979383
 299.998138947
 299.998591757
 299.999176549
 299.999562582
 299.999774192
 299.999795492
 299.999866112
 300.00017989
 300.000182736
 299.999906683
 299.999664497
 299.999311105
 299.998898031
 299.998856407
 299.999136627
 299.999318038
 299.999358631
 299.999521922
 299.999794536
 299.999816493
 299.99955815
 299.999354079
 299.999539065
 299.999929913
 300.00000951
 299.999912043
 299.999765385
 299.999516052
 299.999415162
 299.999408924
 299.999298155
 299.999215819
 299.999264957
 299.999230372
 299.99907058
 299.999067908
 299.999143366
 299.999163815
 299.999238836
 299.999201858
 299.998931767
 299.998454182
 299.998169921
 299.998160068
 299.998136432
 299.998063155
 299.99840404
 299.998522766
 299.998069161
 299.997586513
 299.99719881
 299.997364357
 299.998156884
 299.998748551
 299.998803799
 299.998868525
 299.998885318
 299.998955952
 299.99935462
 299.999960839
 300.000318948
 300.000388129
 300.000419601
 300.00050091
 300.000348027
 300.000280082
 300.000232079
 299.999970017
 299.999730848
 299.999492535
 299.999378531
 299.999240317
 299.999211779
 299.999365535
 299.999449975
 299.999347825
 299.999531788
 299.999703548
 299.999396182
 299.999316219
 299.99972507
 299.999978791
 299.999896249
 299.999856023
 299.999907812
 299.999948417
 299.999946176
 299.999996565
 300.000005659
 299.999881903
 299.999780057
 299.999831715
 299.99980569
 299.999593308
 299.999337231
 299.999280696
 299.999496976
 299.999826765
 299.999873641
 299.999723359
 300.000010541
 300.000289936
 300.000270331
 300.000325488
 300.000401312
 300.000330256
 300.00019023
 300.000134667
 300.000083095
 300.000094549
 300.000059837
 299.999996599
 299.999907169
 299.999861303
 299.999947185
 300.00010484
 300.000253181
 300.000270916
 300.000358423
 300.000481332
 300.00053441
 300.000439131
 300.000193165
 299.999983241
 299.999839573
 299.999747374
 299.999716317
 299.999684852
 299.999660995
 299.999599359
 299.999495029
 299.999551496
 299.999746164
 299.999752316
 299.999534452
 299.999427012
 299.999490705
 299.999586514
 299.999663192
 299.999696181
 299.999717765
 299.999819208
 299.999907693
 299.999971305
 300.000088149
 300.000192236
 300.000352017
 300.000392428
 300.000195885
 300.000274661
 300.000155353
 300.000134521
 300.000165727
 300.000195663
 300.000155107
 300.000092556
 300.000064677
 300.000039643
 300.000073552
 300.000030481
 299.999860629
 299.999803917
 299.999834072
 299.999824857
 299.999758239
 299.999661258
 299.999608367
 299.9995753
 299.999485891
 299.999449557
 299.99950409
 299.999614735
 299.999754543
 299.999803813
 299.999849411
 299.999942643
 299.999853754
 299.999653454
 299.999706426
 299.999852716
 299.99985694
 299.999989832
 300.000380412
 300.000663671
 300.000632658
 300.000565134
 300.000721025
 300.000812897
 300.000485121
 300.000010445
 299.999681586
 299.999515839
 299.999460513
 299.999499792
 299.999538333
 299.999510671
 299.999529267
 299.999655235
 299.999887022
 300.000004987
 300.000096589
 300.000305639
 300.00038713
 300.000338904
 300.00040862
 300.000625993
 300.000686749
 300.000591997
 300.000321315
 300.00017762
 300.000246415
 300.000050819
 299.999871426
 300.000057092
 300.000237532
 300.00015866
 300.00017655
 300.000274633
 300.000167026
 299.99992533
 299.99984026
 299.99987898
 300.000003472
 300.00015484