# vtk DataFile Version 3.0
array.1
ASCII
DATASET STRUCTURED_POINTS
DIMENSIONS 1 321 161
ORIGIN 1500.01 799.99 0.001
SPACING 0 1.25 1.25
POINT_DATA 51681
 FIELD attributes 1
U 3 51681 float
3.70049577107 	0.245297388521 	7.11380911324e-05
 3.58534908883 	0.240328065909 	-2.50717454184e-05
 3.45405939818 	0.121796655445 	2.11058969899e-06
 3.25464288827 	0.0289686480168 	0.000127793377078
 3.2937247064 	-0.165889459591 	0.000108025737343
 3.77739412419 	-0.354565068845 	-9.33120408183e-05
 4.13341100448 	-0.419611105981 	-5.6758247583e-05
 4.17999525887 	-0.406377039272 	9.68559557855e-05
 4.26739586813 	-0.272838567086 	-0.000104739185432
 4.37721954375 	-0.0414728844524 	-0.000138880998101
 3.97611827308 	0.380565465328 	-0.000296957836487
 3.41630964334 	0.597563652644 	-0.000242308002032
 3.27788911109 	0.265120794283 	-0.000163274921378
 3.55170076351 	0.0158244892323 	7.12853495974e-05
 3.62459619788 	-0.253284582613 	0.000183722692434
 3.4048879186 	-0.506728842513 	-4.04190949109e-05
 4.130943572 	-0.271615332057 	-2.40396112605e-05
 4.4985430213 	0.0539491926082 	0.000150371230499
 3.74776977203 	0.112805789856 	-4.15178720039e-05
 3.81094072324 	0.0768939444401 	-0.000136057541664
 4.46000130789 	0.346239227546 	-0.000159542594355
 4.02777821711 	0.577715077444 	-0.000178007002362
 3.17540568058 	0.192575462747 	8.59247856823e-05
 3.23973911316 	-0.15275181708 	4.39914769148e-05
 3.600070148 	-0.180380927138 	-0.000213855960862
 3.52178754759 	0.0139214212327 	-0.000456363535857
 3.61208681344 	0.00685883073146 	-0.000415644425659
 4.39371244962 	-0.186762746765 	-8.32779579115e-05
 4.78399651133 	-0.145454018463 	-0.00041833804726
 4.4878975093 	-0.0945737681002 	2.06691843866e-05
 4.10409226307 	-0.052413210271 	0.000234836673204
 3.75236126952 	-0.0822902456734 	-0.000354254569686
 3.45030269307 	-0.138028070825 	-0.000623520083775
 3.01345715265 	0.283985808446 	-0.000201078673432
 2.67082647201 	0.847209363612 	0.00011212937853
 2.73945538784 	1.09255025081 	0.000254397997624
 2.67648645828 	1.0500739862 	0.000110701791239
 2.34286196195 	0.543916564818 	0.000212906371669
 2.49950407982 	-0.0207440141355 	0.000389103598138
 3.20867540207 	-0.431007412829 	0.000371503105031
 3.5878979649 	-0.431744219999 	-0.000105459578175
 3.46359443242 	-0.0424158762016 	-0.00040572132195
 3.16561776589 	0.288508690933 	-0.00015355826934
 2.9132504329 	0.44148962289 	-0.000339149818041
 2.49263381701 	0.833836887221 	-0.000620077240945
 2.14260958365 	1.19171668558 	-0.000436432435639
 2.42907158716 	0.903717965137 	4.14315166534e-05
 2.35412694381 	0.781275518054 	0.000329271034187
 1.81620781404 	0.608146202087 	0.000323892295849
 2.5852058712 	0.431072643183 	0.000126783932661
 3.03349521582 	0.692741802281 	-0.00032821799454
 2.37721975237 	0.740615835577 	2.90101125859e-05
 2.64794199748 	0.430371980542 	0.000443896612662
 2.49079327937 	0.299676499461 	0.000170707696402
 2.48454763009 	0.476549223165 	1.50239659471e-05
 3.3508915821 	0.633664654841 	-6.5541561802e-05
 3.54018399941 	0.975936715333 	-0.000262720333427
 3.8715781594 	1.11731691987 	-1.39628347907e-05
 3.86497678638 	0.723718282879 	0.000223881403654
 2.90545677023 	0.879137383994 	5.19983479216e-05
 2.62757635564 	0.916279150424 	-0.000676656548213
 3.6337394226 	0.291149196206 	0.000170488226662
 4.5615340163 	0.178020629756 	5.14949382815e-05
 4.81102447545 	0.0361698655721 	-0.000417320595452
 4.55944022361 	0.041752975228 	-0.000295628922055
 4.03144904967 	0.239294046032 	-0.000195588805347
 3.95756733417 	0.169900620935 	1.46784877071e-06
 4.15746172782 	-0.14639367823 	0.000269041275872
 3.95446022529 	-0.523958182679 	0.000259974999044
 3.53730483181 	-0.644012148001 	0.000442664039881
 4.08654144585 	-0.572324111876 	0.000210908123484
 3.9638595534 	0.00858095196131 	-0.000140109646801
 2.486635484 	0.150098071937 	0.00037001319879
 2.17682227984 	-0.0635384480989 	0.000155083635463
 3.39337474799 	-0.0109707337381 	-0.000212143382508
 4.46279389374 	0.234949952946 	-0.000426119227794
 4.22272114999 	0.174419342109 	-0.000995726319372
 3.67319888412 	-0.300769605366 	-0.000412971781268
 3.68569449932 	-0.235520089903 	-0.000212640975961
 3.70513832321 	0.233443715386 	-0.000289691477699
 3.43673829136 	0.452149624411 	-0.000281835118448
 3.45348390729 	0.251542160731 	-8.28060863944e-05
 3.85221870525 	0.318838547178 	-0.000257992249151
 3.99291907489 	0.708013201987 	-0.000651570048027
 3.78442053514 	0.678483542994 	-0.000289274203349
 3.66053292132 	0.176745637837 	0.000436806263394
 3.65515721999 	-0.141870826235 	0.000256560503398
 3.46477734671 	-0.240382156337 	0.000169919025721
 3.57466477633 	-0.311154643214 	-0.000115046984551
 3.84319347082 	-0.376538934238 	-0.000791556082572
 3.88139099528 	-0.247144491274 	-0.000261861685482
 3.59032651927 	0.238737474161 	-0.000322513969969
 2.79320181635 	0.462298012232 	-0.000572397301275
 3.12450221947 	0.0534484264838 	-0.000285840285704
 3.96733153359 	0.330580710245 	-6.96830751039e-05
 3.92361338369 	0.552468824627 	-0.000253265333052
 4.46118851702 	0.103174718084 	-0.00072557440329
 4.36416942513 	0.459166823029 	-0.000644023266524
 3.50792201924 	0.788210880182 	0.000168800969781
 3.39944128302 	0.466589822137 	6.16797047898e-05
 3.24124803336 	0.258938083115 	-0.000193825797119
 2.95397751308 	0.240498729707 	-0.000206145049573
 2.97677803955 	0.220323133722 	-5.50453673967e-05
 3.21421066524 	0.237457154734 	-3.51461084303e-05
 3.17100778403 	0.0416126359774 	-0.000117110420876
 3.05156639113 	-0.256539655976 	7.1492048229e-05
 3.29534171726 	-0.303119261826 	0.00012532327351
 3.50513164855 	-0.0439348748853 	-0.000159821334565
 3.32614546857 	-0.120937705958 	-0.000259119059121
 3.32669741748 	-0.344937031121 	-2.78290880366e-05
 3.44757624524 	-0.297258125082 	-0.00019841349214
 3.12387163367 	-0.322790474202 	-0.000211680145571
 2.83219356085 	-0.188049228764 	-5.21467451655e-05
 2.92765816841 	0.0466091514087 	2.80760195106e-05
 3.06227591351 	0.18677458754 	-0.0002098238095
 2.97421403018 	0.210062116003 	-0.000139689047007
 2.82050334387 	0.200247174288 	-0.000245151541502
 2.95850965616 	0.0909404658335 	-0.000138131649768
 3.31360381554 	-0.0982948887506 	-0.00035037434202
 3.06444506747 	0.000641953264373 	-0.000501446353338
 2.50273735642 	0.220105542815 	-0.000161080090721
 2.30107026699 	0.408883852062 	0.000324082068802
 2.39753189592 	0.355961742494 	5.74910800348e-05
 2.81412320811 	0.168126275173 	-0.000506760271293
 2.85300694145 	0.385202248002 	-0.000659168636716
 2.62943541591 	0.403227757772 	4.1101558116e-05
 3.27952878459 	0.27390239653 	-0.000482840613231
 3.54687035062 	0.403174346047 	-0.000304354988247
 2.89685092861 	0.227190967387 	0.000177102401306
 2.77378929949 	-0.0862564893122 	0.000233958247588
 2.72208758407 	-0.193774472881 	-0.000362329610721
 2.62434766661 	-0.349942224704 	-8.90139450232e-05
 3.38695104893 	-0.179929079064 	-0.000227294558687
 4.02746460894 	0.315675977483 	-0.00071853068943
 3.64155629463 	0.726071770691 	-0.000266022584841
 3.23061021105 	0.870912696189 	3.7536734367e-06
 3.1742587915 	0.570775214493 	9.55131559141e-05
 3.18787465597 	0.37368775726 	-3.28381877438e-05
 2.96501090667 	0.448124030209 	-0.000262222074477
 2.77856394275 	0.582194085433 	-0.000113399269324
 2.74910941915 	0.549548364809 	-0.000153195034617
 2.85812163824 	0.263913032963 	3.11643228402e-06
 2.89171145457 	0.165563048736 	0.000222566057631
 2.71997653903 	0.31503103662 	0.000135868728607
 2.42474064996 	0.427131165513 	0.000276142866834
 2.13204789415 	0.229868076421 	0.000256579175477
 2.48120045317 	0.259947899536 	0.000114265382854
 3.01848910664 	0.395835959142 	-0.000216664971903
 3.48617892945 	0.19357881073 	-2.02259053891e-05
 3.52377636705 	0.0614123423275 	-4.09524912299e-05
 2.66755071853 	-0.0371023204143 	-0.000287978828401
 2.15170628003 	0.0426293424675 	-2.87918185997e-05
 2.4555994906 	0.243160115584 	-3.52208533647e-05
 2.75678314937 	0.191791904103 	-4.5118012028e-05
 2.92805410895 	0.253408333054 	-0.00011052668285
 2.92153067823 	0.285642521876 	-0.000117482692678
 3.230983475 	0.147085646619 	-0.000180615256852
 3.54286910727 	-0.0366849436848 	-0.000303308144294
 3.27415812757 	-0.14747489405 	-0.00013332213439
 2.92278212358 	-0.0967080696946 	-7.5436560143e-05
 2.82021364326 	-0.28451276659 	5.89336315727e-05
 3.11605165951 	-0.222481479004 	-0.000110542106388
 3.66110250649 	0.174212459673 	-0.000171133064197
 3.64582611883 	0.562656838268 	-0.00033379581825
 3.61894409757 	0.953263670291 	0.000113173212075
 3.84347507314 	1.05786957978 	-1.68345390497e-05
 3.36986826486 	0.970573671909 	-1.00773659164e-05
 2.96128778235 	0.956239805288 	4.4302696084e-06
 2.90607284798 	0.472118408734 	0.000439577972821
 2.76666246353 	-0.168667810854 	0.000391733070078
 2.60733440385 	-0.315071492405 	1.29085937599e-05
 2.26207422132 	-0.420265051152 	2.64289660616e-05
 2.10611180905 	-0.475664342524 	-6.30241760564e-05
 2.96022095019 	-0.0598439727231 	9.78508518095e-05
 3.34439648505 	0.212579803307 	-4.10297196704e-06
 2.4808281683 	-0.202855179059 	-5.68950643503e-05
 2.13371737086 	-0.641979067665 	0.00024638355431
 3.17151741584 	-0.421037094995 	0.000292003088517
 4.62910757207 	0.114605313745 	0.00044770079032
 4.88876886574 	0.248900381306 	-0.000383483266857
 4.15298319152 	0.375114063576 	0.000163963766723
 3.3879170695 	0.841484916352 	0.00043059533735
 2.65923707763 	0.891085864191 	0.000333036354015
 2.58424692389 	0.616326282816 	4.91578477155e-05
 3.10665068511 	0.213760524582 	-0.000438211694507
 3.5156382849 	0.228509818777 	-0.000183425436941
 3.89522056345 	0.515282979516 	-6.25364722182e-05
 4.05274201725 	0.687796131584 	-0.000293099982237
 3.5815051915 	0.886873241449 	-0.000116299805681
 3.02822366286 	0.491155216892 	0.000316392214094
 3.01467943904 	0.142911522676 	0.000163061230342
 3.95822616625 	0.211039969587 	2.2416774395e-05
 3.99844170301 	0.527747741038 	-0.000794448401255
 2.65690757856 	0.67965550859 	0.000467837330361
 2.39170355271 	0.44075347619 	0.000280243073362
 2.92347346481 	0.257728459984 	-7.01043995177e-05
 3.17454149807 	-0.0134947070964 	0.000309926550405
 2.82101131713 	-0.0673369875617 	1.67109321986e-05
 2.55372957452 	-0.239632010219 	-1.19453479401e-06
 3.25315840909 	-0.306640063515 	-6.99101292866e-05
 3.79479282039 	0.245567527793 	-0.000279560827333
 3.7447510062 	0.355076010642 	-0.000438095406315
 3.69940838519 	0.316360922012 	-0.00020955224872
 3.42856779368 	0.405536402677 	-8.99383396343e-05
 3.23827170349 	0.102009729643 	0.000327214403095
 3.08918115267 	-0.0938991501355 	0.000107034464364
 3.2467150273 	-0.0642893017482 	2.720631355e-05
 3.32822327899 	-0.201617431139 	6.83171522784e-05
 2.95239287526 	-0.294058165886 	0.000196635889528
 2.99973490636 	-0.173462077914 	-8.24208129193e-05
 3.22679327065 	-0.374268210001 	-9.42670831752e-05
 3.39253029743 	-0.806993994684 	9.47954931958e-05
 3.45273019894 	-0.962799450799 	-0.000444522702389
 3.01943283133 	-0.81413874929 	-0.000162488421486
 2.29720217876 	-0.323731177143 	-0.000329472430175
 2.22538105191 	0.0452893242422 	-4.1039207013e-06
 3.17083064079 	0.014295513765 	-0.000145736640672
 3.54613980735 	-0.157795652588 	-0.000191871798257
 3.19159027362 	-0.3705301641 	-0.000112326738297
 2.69125115347 	-0.364783951085 	-0.00038755860331
 3.33092765055 	-0.0731671793884 	-9.83610941893e-05
 4.33973693135 	-0.252210339628 	0.000181074233376
 4.24277730405 	-0.2030281605 	-1.29869740858e-05
 4.11215630473 	0.363193198755 	-0.000386825968639
 3.90374669883 	0.403476183078 	-0.000155206931838
 3.92210653887 	0.322894887793 	0.000117298975113
 4.36143357126 	0.319526739072 	-0.000438484175576
 4.29542250955 	0.183790547482 	-0.000356038523021
 4.0072465241 	0.170715264038 	-6.65821382234e-05
 4.49395322719 	0.0706709670414 	-3.74751123568e-05
 4.19348942804 	0.430722623668 	-0.00035701759609
 2.66572391699 	0.651248536896 	-2.27372111638e-05
 1.94113432414 	0.517693720089 	0.000166730902721
 2.06318631542 	0.763742458224 	-0.000271960115616
 2.58667753667 	0.770907252375 	0.000272375349644
 3.41911883842 	0.730952040844 	0.000326466934425
 3.77560722649 	0.806405174363 	0.000179070220249
 3.75294121923 	0.869456369929 	9.62313332494e-05
 3.60928668633 	0.940290670313 	7.36412887753e-05
 3.62221254518 	1.02605920147 	-2.30346879904e-07
 3.7271953123 	1.11365170853 	-6.49679981914e-05
 3.25027582335 	1.06227592222 	0.000144156488388
 2.71787705036 	0.826507794754 	0.000340637177269
 2.46052295236 	0.237022809196 	0.000405319052845
 2.71550624127 	0.0327597597636 	0.000258531319758
 3.28299366208 	0.416019455048 	-0.000251166395682
 3.1581208491 	0.52828674428 	-0.000377132690929
 2.78282198315 	0.426513746087 	-0.000296181204684
 2.57424982356 	0.246766229775 	-0.000254502810268
 2.8104594896 	0.267473062972 	3.2577060145e-05
 3.14387961586 	0.457004775387 	-0.000188213001937
 3.01986243369 	0.72810128633 	-0.000453357888977
 2.69322112525 	0.731903505858 	0.000107482914134
 2.4782419747 	0.299952796471 	0.000484163658838
 2.66322460632 	0.00805290971567 	6.06912547646e-05
 3.04606770345 	0.153395183738 	-0.000182402792106
 3.22192309393 	0.324827339531 	-0.000135305896877
 3.38601522242 	-0.0584043283927 	-1.00508894278e-05
 2.96780545602 	-0.129185578181 	1.45217819049e-05
 2.36460962218 	0.0437175204593 	1.2737853189e-05
 2.62758967608 	0.113966961888 	0.000136909764369
 2.76856718367 	0.302902516732 	-4.26672476465e-06
 2.69337254239 	0.111274074048 	0.000178138070076
 3.03106192778 	-0.349506563732 	0.000401538120066
 3.53066457705 	-0.543538809338 	2.63923228873e-05
 4.05235407862 	-0.0974566784955 	-0.000134753998968
 3.95929830055 	0.112204675405 	-0.000480791900583
 3.75179375065 	0.270899049644 	-0.000363772216774
 4.20777910136 	0.342532695637 	-0.000540763388347
 4.29246455854 	0.318123084853 	-0.000405459449242
 3.64775054725 	0.403081585292 	-0.000102865813688
 3.03120300898 	-0.108736735935 	0.000503025667838
 2.89160750003 	-0.400384126144 	-0.000232223059353
 3.10489609967 	-0.130599741879 	-0.000257572558671
 3.90056974719 	0.305547178721 	-7.98947237146e-05
 3.43993969802 	0.891218054293 	-0.000168102505895
 2.3116957483 	0.777628217209 	2.22645941382e-05
 2.45990395802 	0.154638100139 	2.33655089694e-05
 2.66070817774 	-0.0804794661626 	2.21669940061e-05
 2.84541743171 	-0.346359325284 	-5.95355535604e-05
 3.49617670668 	-0.670513040395 	5.10800254395e-05
 4.58452407651 	-0.573242040737 	-0.000225507700284
 4.90792041542 	-0.798091717715 	-0.000535875089441
 4.16058173724 	-0.627747329761 	-0.000463155007317
 3.71869624489 	0.178068281188 	4.50902149791e-05
 3.4573736867 	0.596544446706 	-0.000269044857713
 3.38525414344 	0.611246159939 	-0.000264252377801
 3.65367963968 	0.148090416589 	0.000255093900639
 3.95863402021 	-0.299999032175 	0.000164198111309
 4.28891924102 	-0.687120849987 	1.29141020262e-05
 3.69220035337 	-0.72645785395 	-0.000200320552117
 3.13705334764 	-0.471847300113 	-0.000319291892775
 3.64777871539 	0.13999482631 	-4.06618993316e-05
 4.14554272326 	0.858983279393 	-0.000177796891201
 4.49763523459 	1.11949102003 	2.60137074945e-05
 4.1802100797 	0.886614662719 	0.000163946208027
 3.21983589997 	0.347374106241 	0.000265026020299
 2.77728953925 	-0.0967774452874 	0.00043678452434
 3.0070463503 	-0.583355760495 	6.65099202415e-05
 3.76542842419 	-0.666753277543 	-0.00011737376463
 4.57074351187 	-0.716104890074 	8.54449247106e-05
 4.94353865311 	-0.451370322615 	-0.000383445815891
 4.58288386663 	0.429852624984 	-0.000613707036474
 3.62476930393 	0.779763087794 	-0.000208584547107
 2.95293553785 	0.698666758569 	-6.57026450044e-06
 3.03200285592 	0.451958783611 	1.89641881898e-05
 3.43527815803 	0.419674337196 	-9.81770208366e-05
 3.62430137124 	0.598148009274 	-0.000166612422612
 3.57784348396 	0.711419252471 	-0.000208215215562
 3.45404310594 	0.680319159417 	-7.55162774372e-05
 3.30079276423 	0.464778831869 	0.000106885231976
 3.56352493795 	0.336517846998 	0.000100687900132
 4.11671067325 	0.432801017453 	0.000112795323038
 4.29576090564 	0.288776065717 	-6.93142915714e-05
 4.1008418889 	-0.0893822588736 	-1.79905038093e-05
 3.71690302384 	-0.401257036459 	-8.52348038665e-05
 3.84578824195 	-0.575581057316 	0.000190340802938
 4.27995931049 	-0.416055337804 	-0.000195703246863
 4.37729867484 	-0.296034818767 	-0.000603043807934
 4.27423923532 	-0.145437163218 	-0.000640701932472
 4.034151552 	-0.298162496961 	-0.000356853978295
 4.52255536661 	0.229667325236 	0.0509693919919
 4.58657140307 	0.256828691231 	0.049559952374
 4.65538984423 	0.187474005673 	0.0782332432781
 4.65459033265 	0.126089939089 	0.0987888902021
 4.57922831803 	0.0791441835354 	0.0859026141751
 4.8523316367 	-0.043219676912 	0.0801910996026
 5.26799709487 	-0.136835469184 	0.0638745185821
 5.37074613204 	-0.114287838767 	-0.0215329705072
 5.23992123767 	-0.00470925964621 	-0.146253052503
 5.20766044594 	0.223262680926 	-0.22448434791
 5.40210429719 	0.381019036519 	-0.189335396554
 5.12727483433 	0.433027735879 	-0.0428755380435
 4.49121759105 	0.368301665001 	0.0874923666737
 4.46445426669 	0.205992616293 	0.156194846302
 4.83576954965 	0.0873919221578 	0.172541934972
 5.09349244624 	0.066379658246 	0.134437730745
 5.50773142428 	0.166568426218 	0.0553973691616
 5.82483714693 	0.224670420669 	0.0020970778288
 5.7586192362 	0.210320182549 	-0.0160262692619
 5.65334131115 	0.214058859902 	-0.0179504717487
 5.46071649308 	0.250388283423 	0.0359998605437
 4.90058084743 	0.285484632618 	0.12526302542
 4.57109312358 	0.240187161527 	0.149483926143
 4.95072551979 	0.193451202591 	-0.00114102502469
 5.48568416916 	0.168353839474 	-0.214047709364
 5.69163737675 	0.327515453915 	-0.228213844647
 5.48020953454 	0.534308645124 	-0.0585248336947
 5.28571816281 	0.52139604913 	-0.0537139416515
 5.21120224291 	0.4048253628 	-0.089811506757
 5.17653999199 	0.345481586503 	-0.0807708335238
 5.24347665785 	0.267766800326 	-0.180476567569
 5.28108286589 	0.310772567268 	-0.257356760532
 5.55234109049 	0.609269361099 	-0.224295925937
 5.70699953682 	0.766538986628 	-0.140539073265
 5.3085271158 	0.888910716227 	-0.0338327796298
 5.07634699183 	1.09414193514 	0.0302328820135
 4.94117883885 	1.10789969072 	0.0761184072872
 4.43130425259 	0.998753352401 	0.204019206245
 3.77965090351 	0.775489683015 	0.303904854849
 3.58786295567 	0.611647644286 	0.199013762199
 3.8521638258 	0.597004813998 	-0.0247237054741
 4.28623408384 	0.656916890841 	-0.146196484516
 4.46456579257 	0.828367775736 	-0.177863756962
 4.03663726612 	0.750905755292 	-0.170547373873
 3.71595764037 	0.32416270777 	-0.0988201075468
 3.78541312962 	0.135334473816 	0.113233195873
 4.18065619807 	0.183393208249 	0.305763582946
 4.53712095585 	0.234982990502 	0.325150417591
 4.43937711372 	0.244719603938 	0.221972501137
 4.65965698736 	0.257810502253 	0.0469553524016
 4.82928418996 	0.566242693029 	0.00446767243655
 4.15610215198 	0.795198572278 	0.212887559059
 4.09228054973 	0.728669055154 	0.34219636271
 4.71313833253 	0.742356434054 	0.225405758671
 5.3069010731 	0.93987208973 	0.120150833534
 5.56220199986 	1.1475872981 	0.115136974104
 4.91758375561 	1.11530671082 	0.172831274069
 4.28748499613 	0.772680087118 	0.212844795485
 3.83829593484 	0.505940949776 	0.0955654806422
 3.359830196 	0.650356836192 	-0.0306049245109
 3.25508353933 	0.59155166593 	0.142456899745
 3.81506201617 	0.317069617907 	0.228038364019
 4.48322254512 	0.31535404263 	0.000134299256338
 4.84089187041 	0.408816127947 	-0.219717351807
 5.02439165558 	0.504126912495 	-0.273105163994
 4.84042092859 	0.600589410155 	-0.127069609322
 4.57376475574 	0.664181916257 	0.0642639115578
 4.56198743912 	0.553598063111 	0.102594285929
 4.63647356998 	0.407078839052 	0.035607812987
 4.58169376712 	0.331871822774 	0.0311669614088
 4.69515696754 	0.350127238902 	-0.0401844025155
 4.70354717632 	0.420963244356 	-0.0376120218011
 4.45505914699 	0.504259238695 	0.00637899869584
 4.0725584989 	0.610915154493 	-0.00927495610628
 3.97110575093 	0.650947576457 	-0.0682294089982
 4.53240144858 	0.796581807845 	-0.191616302875
 4.76653421228 	0.76683776842 	-0.101583233997
 4.65380962839 	0.51242742378 	-0.0195498449721
 4.81664264386 	0.405052055559 	-0.0994180864411
 4.74108242017 	0.248184294447 	-0.093425930687
 4.47472726472 	0.0694277570372 	-0.0253602424659
 5.00751939669 	0.134903475564 	-0.115503260985
 5.51862681021 	0.172374174223 	-0.215432143719
 4.83378926049 	0.303974199346 	-0.150395278714
 3.81957327784 	0.428665461044 	0.07204192248
 3.67656880479 	0.341781784184 	0.221396785881
 4.05792643335 	0.231644557311 	0.17055894332
 4.2458022357 	0.12831601981 	0.0701303514302
 4.42218107346 	0.00668491718193 	-0.107490602999
 4.6193179713 	-0.154165152932 	-0.19782438636
 4.64884617394 	-0.0636234771164 	-0.203716665567
 4.3171322585 	0.113575133354 	-0.192174740285
 3.97072256875 	0.240652845253 	-0.0915202192605
 4.20406161637 	0.276260636105 	-0.0787496325167
 4.67738131089 	0.331166907522 	-0.139511376515
 4.84929701229 	0.344079230187 	-0.103926457755
 5.15681103942 	0.0655210318951 	-0.180636320384
 5.07819305412 	0.0975910188263 	-0.182881656089
 4.57156183163 	0.403040466144 	0.0161238869705
 4.34679227771 	0.354065721729 	0.0856025763099
 4.34799292539 	0.143500050842 	0.0670441195995
 4.49335017491 	-0.042857146804 	0.0547560529067
 4.57784784156 	-0.134776086667 	0.00632177822062
 4.67198136862 	-0.131923931688 	-0.0199410200349
 4.64743191052 	-0.157337315108 	0.0196749429676
 4.61977981213 	-0.18139863987 	0.0497136772243
 4.84242433646 	-0.175131779385 	-0.0132296902033
 5.01898579633 	-0.06761796867 	-0.0988540243586
 4.95815985939 	0.0272231450526 	-0.0678122170858
 5.09170071745 	0.0424604571546 	-0.0426533754614
 5.38526273425 	-0.0107400147382 	-0.0589214866383
 5.22973193051 	-0.0854708543474 	-0.0297240687679
 4.89142983372 	0.0714536950368 	-0.00501048434213
 4.88960287928 	0.181313850965 	-0.0220037617061
 5.04588325567 	0.144072981701 	-0.0272064991732
 5.27861441873 	0.165837883596 	-0.0364290432451
 5.10188512239 	0.283858119679 	-0.0429871007961
 4.83120533474 	0.346069064986 	-0.0584692024683
 4.94621572144 	0.318262197582 	-0.13888604272
 4.68079048255 	0.281905080353 	-0.190301043087
 4.11992158627 	0.13926181898 	-0.118321521733
 3.75560650158 	0.0085621268284 	0.0564187628688
 4.18911712474 	-0.149504561075 	0.0605451107296
 4.97556005206 	-0.322169554894 	-0.174916811468
 4.86252758153 	-0.200088051506 	-0.185110933741
 4.59501402688 	0.0283848237685 	-0.12285948789
 4.94763094603 	0.158742404331 	-0.20140295544
 4.92186877941 	0.307721156112 	-0.0840675817813
 4.57374880784 	0.350613789084 	0.0995579684458
 4.45952367693 	0.390058851482 	0.0807539899372
 4.15707285736 	0.38863191688 	0.0183327895863
 4.01835683253 	0.434831259391 	-0.0272592047626
 4.46595796242 	0.49355655413 	-0.176222784222
 4.82896302111 	0.388783619793 	-0.286671290665
 4.59469627855 	0.445877275953 	-0.194473138477
 4.11390832882 	0.548007035263 	-0.0138161125575
 3.86466859772 	0.490435876591 	0.0768724461665
 4.185572016 	0.371255035901 	0.0580662264367
 4.56226642937 	0.271333772832 	0.0194533561305
 4.63926844248 	0.355598319885 	-0.00463136370869
 4.67098186406 	0.521109450433 	-0.0458288498663
 4.59005235635 	0.579507517905 	-0.0355552169062
 4.47796075632 	0.542661872917 	0.00345588607545
 4.35680137703 	0.499012834302 	0.0606436188299
 3.98434311469 	0.539230541486 	0.164513804667
 3.55688849482 	0.394134384643 	0.181946137521
 3.75527976701 	0.326288371011 	0.0567737128714
 3.91525453699 	0.460846909259 	0.0294642312743
 3.84043950175 	0.475119346674 	0.0927347462412
 3.98910453342 	0.366481216563 	0.0927248807518
 3.98767857424 	0.288879465969 	0.0804748252374
 4.0972760225 	0.423710149693 	0.0328123524152
 4.1238337426 	0.553321257697 	0.0147957008036
 4.13405941383 	0.627629076658 	-0.0148170122408
 4.30720280071 	0.711206660754 	-0.0701050446083
 4.20854185377 	0.589125929186 	-0.0237094052526
 4.14805965571 	0.507860507519 	0.0512215065962
 4.21071091789 	0.45581351065 	0.0806706148207
 4.19659956356 	0.296613518952 	0.0189618396535
 4.17128584794 	0.22797010878 	-0.0394211649389
 4.4208769913 	0.219334082638 	-0.105619288048
 4.76978913393 	0.28889163501 	-0.172131426448
 4.92353358891 	0.32182834369 	-0.198803905964
 4.77241744037 	0.445658986159 	-0.159494142707
 4.6895061043 	0.720352234428 	-0.0558706429429
 4.76199257588 	0.836052991385 	0.0151755149847
 4.31890058741 	0.771887391988 	0.0944290895385
 3.66573447299 	0.646328630237 	0.283315793854
 3.25956939444 	0.270170883007 	0.399132532041
 3.26697974787 	-0.0202425940806 	0.248737780267
 3.53965739855 	-0.139911473544 	0.140265347212
 3.78045835349 	-0.365428826294 	0.115401704486
 4.03949097357 	-0.368514021736 	0.0930091130335
 4.23893984244 	-0.313872208482 	0.131922234134
 4.2857659834 	-0.454868974853 	0.176896059105
 4.33259066931 	-0.726229028336 	0.1874742244
 4.55016017567 	-0.695645264957 	0.12933354895
 5.05007395055 	-0.266779310596 	-0.0139400784507
 5.49723195282 	-0.0703675879487 	-0.174319269259
 5.43146680604 	0.00221120447804 	-0.117624995177
 5.21613204089 	0.17582246483 	0.0255865921644
 5.04784024467 	0.561327060808 	0.100301103421
 4.49276643868 	0.883291708599 	0.203140565758
 4.02407447935 	0.856212506366 	0.18452438785
 4.14940352358 	0.637957465069 	0.0473783774885
 4.43170098238 	0.424429889889 	-0.0397209507853
 4.45445153499 	0.405299400565 	-0.0407687965511
 4.4025606211 	0.394260451196 	-0.0379330576463
 4.31708283366 	0.460888285932 	0.0440319867113
 3.99828292487 	0.402987731432 	0.165490212584
 3.96453591115 	0.289648789724 	0.126500948049
 4.44631083239 	0.276437989326 	-0.0736279295386
 4.37641782206 	0.255281109403 	-0.0587176854462
 3.73747664014 	0.291008734621 	0.106956101223
 3.63270413647 	0.354091129103 	0.0914689964835
 3.74905815502 	0.324665658539 	0.12169906629
 4.01935784036 	0.136643988873 	0.129985450582
 4.24946433846 	0.127636055264 	0.104465278244
 4.09687363725 	0.113208677725 	0.0884960018818
 4.06298071839 	0.0508011084439 	-0.0390699902631
 4.47435141656 	0.496408053961 	-0.12618275639
 4.83019785835 	0.682132865886 	-0.0991827174149
 4.76039997484 	0.553059770815 	-0.054959772061
 4.31303501928 	0.561996069909 	0.10037180346
 3.86614469826 	0.286384798627 	0.153703866875
 3.68856691007 	-0.0149697227731 	0.114175139681
 3.67504494514 	-0.199892685273 	0.148396063414
 3.72600059603 	-0.300464309915 	0.132255720078
 3.87731189026 	-0.186094248705 	0.0709577253846
 3.88169600841 	-0.126330205887 	0.0466522694649
 3.61425592214 	-0.310488791289 	0.129105469836
 3.63244109548 	-0.470223481281 	0.0716355649542
 3.82683123346 	-0.597497407917 	-0.0580823543576
 4.17411406287 	-0.460000239671 	-0.154157722552
 4.26961922886 	-0.101198618658 	-0.184039760883
 3.93041608168 	0.120498286222 	-0.0649568443244
 3.83072283241 	0.176734092139 	-0.0183839443336
 3.92327804665 	0.196356040717 	-0.0518287016969
 3.95173855985 	0.230813864158 	-0.120898751605
 3.65373802722 	0.179898613055 	-0.128118444984
 3.8604145803 	0.352009210285 	-0.055050347762
 4.45779121622 	0.563135144664 	-0.0790763156196
 4.54375214618 	0.69459613379 	-0.238946184045
 4.48500107783 	0.880315039658 	-0.254472413753
 4.42041287212 	0.829234930202 	-0.120818661598
 4.44918238597 	0.856387217068 	-0.137718936318
 4.83500988067 	0.640316835846 	-0.160977892564
 5.14504027981 	0.583318355647 	-0.0737229007308
 4.7285655935 	0.596395397093 	0.0798027568113
 4.69250207688 	0.169051578858 	0.046917476366
 4.74956270396 	-0.0728967607012 	0.00528198543801
 4.16427088938 	-0.0145946620976 	0.0944003580893
 4.18167597152 	0.101679456517 	0.00089423669329
 4.49302744478 	0.078917038061 	-0.0320904663814
 4.71839289754 	0.169337388175 	0.0152678511028
 5.07798330519 	0.266652085261 	-0.0185561911826
 5.14846502653 	0.353754939784 	-0.0160020656403
 5.13204601607 	0.408899345711 	-0.00888014225614
 5.1476817613 	0.476320208105 	-0.0660930185129
 5.19072986805 	0.597468596227 	-0.141960963122
 5.02757822967 	0.700858336148 	-0.112537492598
 4.507884336 	0.718116786607 	0.0203699764031
 4.19593629531 	0.677497440551 	0.139141893927
 4.2989963147 	0.647211806477 	0.135060626478
 4.64344971332 	0.787996227532 	-0.0402684267874
 4.95138508266 	0.930378173617 	-0.176115274559
 4.78632131004 	0.907088796559 	-0.0644329465918
 4.20028434858 	0.822823272283 	0.103992297848
 3.67382501893 	0.606918558127 	0.136880594294
 3.91954590494 	0.518144150484 	0.0528327218904
 4.46207606853 	0.54293828573 	-0.0924724469149
 4.405137331 	0.511661758229 	-0.0979278498629
 4.13117854379 	0.447199912952 	0.0364357301005
 3.92606992018 	0.38913806841 	0.0864324516026
 3.61869271922 	0.381672621054 	0.084532901228
 3.54658512508 	0.423686810737 	0.0586481573161
 3.73114049119 	0.49215937442 	0.072935129236
 3.84986923073 	0.29777253649 	0.0898822411083
 3.91351153753 	0.228372522683 	0.0202418129011
 3.88079282497 	0.421407136829 	0.0497831542586
 3.81399207508 	0.450239834306 	0.0954092130509
 3.82890087271 	0.380196345276 	0.0793413725263
 3.81844071553 	0.24360072199 	0.119765733257
 3.80239953341 	0.102407696753 	0.136522771147
 3.92876809543 	0.0960070570685 	0.0207226686854
 4.41105535669 	0.276323789452 	-0.168595890053
 4.82961469386 	0.373659282455 	-0.206170841837
 4.80856852423 	0.254961508434 	-0.165477599833
 4.67992557508 	0.0461426296486 	-0.172762656076
 4.50600636905 	-0.156294313437 	-0.117720659061
 3.99495532639 	-0.12208159799 	0.123948820575
 3.57889156686 	-0.275340699045 	0.243541048145
 3.94069663394 	-0.363435888867 	0.106240834534
 4.50137182139 	-0.0536046441749 	0.00725344021099
 4.59193237937 	0.0183773594459 	0.00849817561738
 4.26503274577 	0.0415236055792 	0.105001997996
 4.24917334112 	0.0875972366602 	0.130484047684
 4.37953410274 	-0.00728882650101 	0.0601740791499
 4.42350387158 	-0.0571822897747 	0.0364860768903
 4.47498472161 	-0.148011804859 	0.0438622549422
 4.53221268813 	-0.182590149967 	-0.0600019526787