# vtk DataFile Version 3.0
array.1
ASCII
DATASET STRUCTURED_POINTS
DIMENSIONS 1 321 161
ORIGIN 1500.01 799.99 0.001
SPACING 0 1.25 1.25
POINT_DATA 51681
 FIELD attributes 2
T 1 51681 float
299.999460705
 299.999415852
 299.999439534
 299.999436162
 299.999460262
 299.999638176
 299.999874318
 299.999979284
 299.999960298
 299.999935263
 299.999800582
 299.999667395
 299.99965959
 299.999777402
 299.999888127
 299.99988069
 299.999791564
 299.999826611
 299.999942471
 299.999920739
 299.999904404
 299.999911242
 299.999819014
 299.999563781
 299.999557628
 299.999823915
 300.000044898
 300.000125367
 300.000178403
 300.000288976
 300.000269365
 300.000209723
 300.000100026
 300.00002358
 300.000053218
 300.000033658
 299.999802035
 299.999417068
 299.999218918
 299.999219565
 299.999193041
 299.999075841
 299.999099141
 299.999244644
 299.999342212
 299.999483893
 299.999583858
 299.999607673
 299.999668612
 299.999755173
 299.999867626
 300.000120468
 300.000438252
 300.000556693
 300.000443792
 300.000287531
 300.000241303
 300.00025718
 300.00006381
 299.999846882
 299.999842941
 299.999857176
 299.999756397
 299.999559469
 299.999474833
 299.999645115
 299.999727747
 299.999648928
 299.999660194
 299.999550948
 299.999473014
 299.999597922
 299.999629933
 299.999615104
 299.999843451
 299.999905007
 299.999795209
 299.999738628
 299.999725095
 299.999750743
 299.999648216
 299.999608637
 299.999611652
 299.99979227
 299.999951661
 299.999882992
 299.999719283
 299.999588428
 299.999609218
 299.999703267
 299.999759091
 299.999783757
 299.999833172
 299.999874436
 299.999834918
 299.999826212
 299.999632649
 299.999411269
 299.999710053
 299.999870647
 299.999704119
 299.999694599
 299.99973349
 299.999669548
 299.999644516
 299.999722049
 299.999861135
 299.99987299
 299.999784575
 299.999741112
 299.999816505
 300.000057477
 300.0000075
 299.999758082
 299.999589491
 299.999525806
 299.999649233
 299.999772227
 299.999709875
 299.999740122
 299.999943257
 300.000110075
 300.000073734
 299.999934814
 299.999853541
 299.999731646
 299.999686518
 299.999772635
 299.999839752
 299.999725731
 299.999609388
 299.99969336
 299.999724021
 299.999567136
 299.99956149
 299.999698279
 299.999781794
 299.999814681
 299.999806842
 299.999721481
 299.999706499
 299.999769546
 299.99975014
 299.999757354
 299.999823866
 299.99975415
 299.999599953
 299.999756099
 299.999954755
 299.999789479
 299.999705981
 299.999767901
 299.999788628
 299.999740209
 299.999672908
 299.999645788
 299.999703457
 299.999763209
 299.999700608
 299.999655784
 299.999656452
 299.99972281
 299.999793654
 299.999888665
 299.999889522
 299.999772717
 299.999676831
 299.99954794
 299.999510372
 299.999560056
 299.999654836
 299.999704149
 299.999722809
 299.999749483
 299.999754365
 299.9999483
 300.000102132
 299.999789208
 299.999112891
 299.999003708
 299.999433841
 299.999809135
 300.000023225
 299.999819592
 299.9994771
 299.999380774
 299.99947576
 299.999657132
 299.999908721
 300.000042636
 300.000092674
 300.000110691
 300.000113914
 300.000130739
 300.000122886
 300.000081758
 299.999974615
 299.999798854
 299.999672378
 299.999633576
 299.99974189
 300.000071889
 300.000066236
 299.999773326
 299.999764756
 299.999855237
 299.999669352
 299.999467088
 299.999472953
 299.999470698
 299.999486518
 299.999507609
 299.999727716
 299.999956067
 299.999934531
 299.999784546
 299.999516427
 299.999449673
 299.999644304
 299.999818607
 299.999909959
 299.9999381
 300.000052262
 300.000218164
 300.000196132
 300.000179976
 300.00046824
 300.000479762
 300.000041106
 299.999592596
 299.999304912
 299.99924222
 299.999266018
 299.999248405
 299.999051601
 299.998752983
 299.998520215
 299.998533854
 299.998581319
 299.998526267
 299.998557563
 299.998674737
 299.998866608
 299.998890666
 299.998910972
 299.998941931
 299.999010601
 299.99946533
 299.99983064
 299.999628811
 299.999309089
 299.999369635
 299.999585719
 299.999847023
 300.000054188
 300.000052463
 300.000046057
 300.000019552
 299.99991181
 299.999960515
 300.000073756
 300.000061316
 299.999951537
 299.999885018
 299.999935304
 299.99986032
 299.999754982
 299.999735299
 299.999651083
 299.999622168
 299.99965972
 299.999614544
 299.999641582
 299.999760893
 299.99984676
 299.999960076
 299.999931197
 299.999879991
 299.999860446
 299.999896271
 299.999873215
 299.999725531
 300.000094178
 300.000264986
 299.999936575
 299.99988245
 299.999951652
 300.000021745
 300.000155849
 300.000258652
 300.000219379
 300.000270126
 300.000163019
 300.000163136
 300.000374946
 300.000253179
 300.000004099
 299.999772886
 299.999558011
 299.999400673
 299.999251203
 299.999150672
 299.999221473
 299.999302331
 299.999412151
 299.999400603
 299.999316675
 299.9993942
 299.999500459
 299.999646387
 299.999730624
 299.999708436
 299.99972518
 299.999814169
 299.999969646
 300.000037522
 300.000212868
 300.000522141
 300.000598868
 300.000427758
 300.000248486
 299.9995183
 299.999551138
 299.999661261
 299.999684591
 299.999691103
 299.999872158
 300.00009832
 300.000143672
 300.000093476
 300.000188762
 300.000202169
 300.000022134
 299.99986616
 299.999873681
 299.999958404
 300.000002754
 299.99991572
 299.999853895
 299.999906006
 299.999902821
 299.999914928
 299.9999515
 299.999811481
 299.999513988
 299.999438633
 299.999638553
 299.999869926
 299.999971603
 300.000127661
 300.000254655
 300.000078646
 300.000121139
 300.000091538
 299.999866327
 300.000304473
 300.000859585
 300.000306429
 299.999360196
 299.999235532
 299.999270152
 299.999202433
 299.999227959
 299.999304074
 299.999431529
 299.999505711
 299.999698545
 299.99977585
 299.999691972
 299.999732527
 299.999848448
 300.000116938
 300.000584371
 300.001055883
 300.000899465
 300.000411274
 300.000257512
 300.00020549
 300.000134381
 299.999953617
 299.999817029
 299.999798005
 299.999842969
 299.999782616
 299.999535588
 299.999381165
 299.999541888
 299.999688605
 299.999660364
 299.999653733
 299.99953445
 299.99946796
 299.999570688
 299.999603036
 299.999598911
 299.999801617
 299.999912714
 299.999817884
 299.999690705
 299.999678015
 299.999814576
 299.999805643
 299.999691299
 299.999692722
 299.99989256
 299.999979361
 299.99988922
 299.999808359
 299.999752333
 299.999780177
 299.999790952
 299.999765624
 299.999815895
 299.999930582
 300.00003637
 299.999954771
 299.999831759
 299.999701262
 299.999655368
 299.999849225
 299.999855143
 299.99963809
 299.99951375
 299.999492581
 299.999496891
 299.999534444
 299.9996314
 299.999723709
 299.999696617
 299.999716257
 299.999851717
 299.999887495
 299.999943566
 299.999983136
 299.999909899
 299.999806617
 299.999738205
 299.999759082
 299.999853083
 299.999810264
 299.999731992
 299.999853814
 299.999909541
 299.99979733
 299.999741785
 299.999706216
 299.999549382
 299.999638651
 299.999940678
 299.999961375
 299.999727066
 299.999616197
 299.999742328
 299.999774947
 299.999667902
 299.999621714
 299.999683258
 299.999786779
 299.999761731
 299.999688475
 299.999644048
 299.999730168
 299.999821692
 299.999754973
 299.999731501
 299.999772605
 299.999716832
 299.999627513
 299.9997624
 299.999930219
 299.999856925
 299.999772067
 299.999759356
 299.999793207
 299.999814086
 299.999827894
 299.999832417
 299.999812959
 299.999743776
 299.999698772
 299.999763969
 299.999844226
 299.999962971
 300.000047701
 300.000066066
 300.000072978
 299.999948672
 299.999764109
 299.999623696
 299.999540832
 299.99958714
 299.999724438
 299.999677551
 299.999428378
 299.999340525
 299.999504739
 299.999564263
 299.999545198
 299.99934394
 299.998957576
 299.998974437
 299.999067039
 299.999187497
 299.99928891
 299.999199861
 299.999159945
 299.999213373
 299.999423216
 299.999633979
 299.999820667
 299.999996401
 300.000132942
 300.00022353
 300.000176752
 300.00011508
 300.000115133
 300.000122205
 300.000047621
 299.999867701
 299.99985087
 299.999868269
 299.999800476
 299.999952311
 300.000078472
 299.999914667
 299.999745089
 299.999736867
 299.999645209
 299.999473707
 299.999406793
 299.999436787
 299.999467923
 299.999514159
 299.999670316
 299.999665494
 299.999579842
 299.999596674
 299.999517353
 299.999417977
 299.999552652
 299.999831214
 299.99986312
 299.999744528
 299.999799145
 300.000034389
 300.000175818
 300.000126172
 300.000269568
 300.000334202
 299.99998033
 299.999619136
 299.999443976
 299.999375667
 299.999269717
 299.999264669
 299.999240129
 299.999153433
 299.999124473
 299.999076977
 299.999083627
 299.998941204
 299.998721031
 299.99873385
 299.998998465
 299.99916983
 299.999127718
 299.999038513
 299.99900639
 299.999177273
 299.999630114
 299.999732102
 299.99938909
 299.999333948
 299.999471109
 299.999590599
 299.999732835
 299.999859004
 299.999999946
 300.000029506
 299.999958087
 300.00001742
 300.000094488
 300.000071886
 299.999994585
 299.999960355
 299.99998139
 299.99986149
 299.999691321
 299.999601234
 299.999535273
 299.999569484
 299.999661928
 299.999690192
 299.999701539
 299.999637753
 299.999634125
 299.999758722
 299.999834292
 300.000016111
 300.000010185
 299.999851945
 299.999870825
 299.999965708
 300.000239186
 300.00029435
 300.000035056
 299.999966675
 299.999977068
 299.999960214
 300.00008897
 300.00026196
 300.000304078
 300.000377702
 300.000200627
 300.000094399
 300.000309265
 300.000257809
 300.000001837
 299.999788268
 299.999679407
 299.999477529
 299.999307419
 299.999176607
 299.999191536
 299.999436616
 299.999526609
 299.999421204
 299.999467206
 299.999628028
 299.999680068
 299.999779289
 299.999861854
 299.999821477
 299.999792405
 299.999863012
 300.000029316
 300.000122989
 300.000156187
 300.000276966
 300.000356902
 300.000262095
 300.000169525
 299.999663909
 299.999714852
 299.999870993
 299.999945172
 299.999971398
 300.000151984
 300.000321824
 300.000255755
 300.000144643
 300.000295089
 300.000499447
 300.000415179
 300.000177938
 300.000040731
 300.000007431
 300.000068343
 300.000033563
 299.999830484
 299.99971305
 299.999698566
 299.999683756
 299.999665412
 299.9995504
 299.999364703
 299.999295917
 299.999438577
 299.99969978
 299.999878783
 300.000084289
 300.00018583
 299.999983057
 300.000023475
 300.000149519
 300.000144574
 300.000683934
 300.001285658
 300.000602741
 299.999560674
 299.999406545
 299.999240301
 299.999182325
 299.999437139
 299.99959613
 299.999758163
 299.999765959
 299.999807158
 299.999894979
 299.999777166
 299.999746761
 299.999897513
 300.00021101
 300.00066098
 300.000908285
 300.000606511
 300.000326976
 300.000298241
 300.000036204
 299.999762165
 299.999654162
 299.999775541
 299.99977961
 299.99969189
 299.999712068
 299.999472726
 299.999167035
 299.999287817
 299.999523679
 299.999640256
 299.999723107
 299.999656566
 299.999569237
 299.999552459
 299.999551861
 299.999616104
 299.999764144
 299.999804521
 299.999775072
 299.999732181
 299.999723263
 299.999874407
 299.999939604
 299.999831973
 299.999861613
 299.999989536
 300.000006656
 299.999975244
 299.999950078
 299.99990252
 299.999886579
 299.999895778
 299.999899441
 299.999933847
 300.00003468
 300.000199968
 300.000116758
 299.999880035
 299.999810513
 299.999897169
 299.999938333
 299.999737581
 299.99945455
 299.999270263
 299.999238345
 299.999343045
 299.999507992
 299.999627596
 299.999627809
 299.99954263
 299.999549698
 299.999731999
 299.999881228
 299.999988084
 300.000066169
 300.000132906
 300.000153877
 300.000099124
 300.000079196
 300.000194494
 300.000215943
 300.000029244
 299.999864835
 299.99970017
 299.999743508
 299.999861102
 299.999814781
 299.999766331
 300.000012868
 300.000323524
 300.000245902
 299.999945866
 299.999767884
 299.99982355
 299.999830339
 299.999828685
 299.999812447
 299.999776905
 299.999841011
 299.999760676
 299.999633999
 299.999637692
 299.999772084
 299.999882754
 299.999807203
 299.999692675
 299.999656152
 299.999670695
 299.999676443
 299.999720056
 299.999825611
 299.999865124
 299.999790297
 299.999762756
 299.999840538
 299.999900996
 299.999981461
 300.000011988
 299.999964191
 299.999824531
 299.999738027
 299.999856832
 300.000078451
 300.00026653
 300.000312363
 300.000242047
 300.000264356
 300.000219168
 299.999991084
 299.999792123
 299.999635196
 299.999627607
 299.999804922
 299.999633105
 299.998977026
 299.998555846
 299.998840584
 299.998893075
 299.99883077
 299.998990696
 299.999104941
 299.999323319
 299.999145484
 299.998842549
 299.998643364
 299.998622482
 299.998854885
 299.999194501
 299.999510654
 299.999537074
 299.999619338
 299.999893574
 300.000072045
 300.000146617
 300.000093944
 300.000094396
 300.000112967
 300.000170078
 300.000204749
 300.000105847
 300.000155721
 300.00016649
 300.000009935
 299.999905162
 299.999964101
 300.000006815
 299.999732625
 299.999569819
 299.99959595
 299.999440794
 299.999307898
 299.999439122
 299.999513488
 299.999562424
 299.999609846
 299.999217516
 299.99889745
 299.999084412
 299.999358874
 299.999386235
 299.999359804
 299.999649655
 299.999725957
 299.999523126
 299.999457893
 299.999638468
 299.999939624
 299.999942022
 299.999873796
 299.999968451
 299.999952066
 299.999708504
 299.999467018
 299.999455477
 299.999362238
 299.999405678
 299.999476704
 299.999487144
 299.999710341
 299.999668716
 299.999399157
 299.999178214
 299.998996126
 299.998970997
 299.99929451
 299.99958265
 299.999384608
 299.999194977
 299.999145945
 299.999187308
 299.999480845
 299.999765941
 299.99964061
 299.999356831
 299.999395553
 299.999430514
 299.999497156
 299.999682306
 299.999935268
 300.000027789
 299.999973974
 300.000013571
 300.000082592
 300.000082028
 300.000012005
 299.999997344
 300.000026434
 299.99992827
 299.999753765
 299.999619828
 299.999530567
 299.999583822
 299.999704066
 299.999775052
 299.999777441
 299.999493592
 299.999383045
 299.999613345
 299.999834106
 300.00009413
 300.000100701
 299.999883779
 299.999959416
 300.000207978
 300.000324886
 300.000344249
 300.000250863
 300.000217714
 300.000150903
 300.000070597
 300.000215037
 300.000446609
 300.000535939
 300.000535416
 300.000425707
 300.00024148
 300.000224025
 300.000160575
 299.999991633
 299.999911541
 299.999894279
 299.999675911
 299.99949399
 299.999401119
 299.999323295
 299.999492522
 299.999498318
 299.999292009
 299.999394363
 299.999688199
 299.999809165
 299.999864722
 299.999878794
 299.999793719
 299.999775266
 299.99984425
 299.999948177
 300.000018062
 299.999929521
 299.999937873
 300.000010129
 299.999931611
 299.999946869
 299.999747184
 299.999759665
 299.999847258
 299.999946889
 300.00003468
 300.000172176
 300.000260417
 300.000172299
 300.00009439
 300.000169157
 300.000401718
 300.000575791
 300.000501599
 300.000284166
 300.000111412
 300.000082802
 299.999938593
 299.999682297
 299.999595581
 299.999577988
 299.999456569
 299.999388643
 299.999424975
 299.999488557
 299.999579476
 299.999619804
 299.999775028
 299.999970002
 300.000194536
 300.000368001
 300.000111897
 299.999937181
 300.000209582
 300.000526469
 300.00078318
 300.000804883
 300.000236478
 299.999703539
 299.999524217
 299.999359954
 299.999415798
 299.999573942
 299.999673427
 299.999850003
 299.999845801
 299.999650985
 299.999700029
 299.999766787
 299.999758449
 299.999808512
 299.999993078
 300.000220854
 300.000143443
 300.000115857
 300.000461407
 300.000534045
 300.000074325
 299.999606578
 299.999450893
 299.999993175
 300.000190143
 299.999721576
 299.999547614
 299.99919877
 299.998871255
 299.999172741
 299.999543099
 299.999689959
 299.999740426
 299.999667985
 299.999605976
 299.99962434
 299.99964661
 299.999694491
 299.999722159
 299.999658068
 299.999710042
 299.99981274
 299.999816478
 299.999916816
 300.000030841
 300.000033224
 300.00002571
 299.999992944
 300.000027642
 300.000029017
 299.999897906
 299.99988043
 299.999951542
 300.000009551
 300.000014295
 299.999955346
 299.999975234
 300.000104188
 300.00006328
 299.999860332
 299.999790487
 299.999810769
 299.999748626
 299.999593525
 299.999422628
 299.99934747
 299.999480261
 299.999649677
 299.999801309
 299.999904815
 299.999889554
 299.999765799
 299.999582865
 299.999541384
 299.999680742
 299.999816847
 299.999842463
 299.999947768
 300.000085742
 300.000165369
 300.000273958
 300.00035332
 300.000276935
 300.000085635
 299.999829641
 299.999738159
 300.000122823
 300.000355403
 300.000230847
 300.000232419
 300.000317383
 300.000243831
 300.000173036
 300.000109763
 299.999934204
 299.999843976
 299.999788046
 299.999810762
 299.999875823
 299.999852115
 299.999853815
 299.999828061
 299.999741908
 299.999756788
 299.99982253
 299.999892668
 299.999931102
 299.999844059
 299.99971081
 299.999651678
 299.999673337
 299.999662605
 299.999646127
 299.999665503
 299.999620523
 299.999639217
 299.999771618
 299.99989035
 299.999995875
 300.000026632
 299.999979634
 299.999907039
 299.999892268
 300.000038249
 300.000254868
 300.000314744
 300.000247672
 300.000228617
 300.000342438
 300.000399595
 300.000255876
 299.999994637
 299.999707842
 299.999631923
 299.999677708
 299.999296617
 299.998452285
 299.997862003
 299.998123874
 299.998430985
 299.998612846
 299.998954092
 299.999158515
 299.999514751
 299.999747883
 299.999432324
 299.999058485
 299.998789282
 299.998667297
 299.998989426
 299.999263471
 299.99914482
 299.999272258
 299.999666797
 299.999880168
 299.999993996
 300.000024146
 300.000096849
 300.000120084
 300.000165113
 300.000244696
 300.000214316
 300.000247849
 300.000239765
 300.000171405
 300.000010132
 299.99981203
 299.999844253
 299.999746368
 299.99957626
 299.999472043
 299.999317836
 299.999299593
 299.999507122
 299.999602575
 299.9995665
 299.999438732
 299.998782103
 299.998280448
 299.998610531
 299.999181604
 299.999334431
 299.998941865
 299.998846408
 299.999074937
 299.998914375
 299.99888403
 299.999241921
 299.999642311
 299.999835261
 299.999759749
 299.999679865
 299.99976384
 299.999681668
 299.999470207
 299.999569733
 299.999711503
 299.999836204
 299.999941525
 299.999968805
 299.999988161
 299.999901807
 299.999455079
 299.999152887
 299.999223237
 299.999302139
 299.999504636
 299.999695502
 299.999591343
 299.999596289
 299.999544354
 299.999607109
 299.999637041
 299.999654173
 299.999829034
 299.999669434
 299.999662344
 299.999606558
 299.999529085
 299.999605695
 299.99981915
 299.999929181
 299.999939901
 300.000017751
 300.00007631
 300.00007373
 300.000014429
 300.000007403
 300.000074707
 299.999973327
 299.999712998
 299.999542062
 299.999515858
 299.999600348
 299.999659566
 299.999713221
 299.99972666
 299.999574968
 299.999534891
 299.999767834
 299.999954052
 299.999941412
 299.999937871
 299.999924832
 299.999989023
 300.000079004
 300.000181461
 300.000349383
 300.000338958
 300.000331712
 300.000341721
 300.000306967
 300.000372543
 300.000529352
 300.000612027
 300.000608774
 300.000572286
 300.000379835
 300.000195927
 300.000072056
 299.999959638
 299.999936255
 299.999946385
 299.999841131
 299.999657361
 299.999574956
 299.999501819
 299.999471265
 299.999461328
 299.999297583
 299.999216732
 299.999420479
 299.999673441
 299.999810109
 299.999764747
 299.999549547
 299.999424828
 299.999445728
 299.999447656
 299.999426135
 299.999430881
 299.999558238
 299.999666365
 299.9997347
 299.999858073
 299.999754748
 299.999791183
 299.999859421
 299.999942222
 300.000019067
 300.000080175
 300.000141885
 300.000086856
 300.000081534
 300.000197298
 300.00036402
 300.000507009
 300.000464561
 300.000293556
 300.000151006
 300.000109013
 299.999874048
 299.999610254
 299.999607824
 299.999566686
 299.99941952
 299.999430333
 299.999559588
 299.999752568
 299.999837396
 299.999698035
 299.999818799
 300.000066083
 300.000235903
 300.000323021
 300.000071561
 299.999863664
 299.999998731
 300.00025056
 300.000595594
 300.000544831
 299.999909242
 299.999473363
 299.999388678
 299.999499945
 299.999611616
 299.999541032
 299.999584565
 299.999717653
 299.999771926
 299.999708249
 299.999741787
 299.999920881
 299.999960272
 299.999872474
 300.000057097
 300.000322461
 300.000238404
 300.000176951
 300.000409595
 300.000600729
 300.000365925
 299.999888072
 299.999692264
 300.000257088
 300.000434598
 299.999975579
 299.999662556
 299.999142289
 299.998922438
 299.999352428
 299.999737197
 299.999798892
 299.999777767
 299.999647816
 299.999582058
 299.999678725
 299.999716868
 299.999717732
 299.999703759
 299.999678598
 299.999679586
 299.999742785
 299.999832354
 299.999983866
 300.000142744
 300.000160177
 300.000168882
 300.000129397
 300.000043364
 299.999946912
 299.999850541
 299.999925981
 300.000056848
 300.000083697
 300.000053543
 299.999934536
 299.99981856
 299.99981386
 299.999835039
 299.999759731
 299.999692699
 299.99966848
 299.999554678
 299.999568016
 299.999674669
 299.999750361
 299.999939689
 300.000081599
 300.000143346
 300.000227506
 300.000215187
 300.000040575
 299.99983854
 299.999734729
 299.999709469
 299.999682678
 299.999679651
 299.99977652
 299.999934149
 300.000091761
 300.000243282
 300.000247839
 299.999989379
 299.999762467
 299.999725063
 299.999896603
 300.000343324
 300.000510465
 300.000392161
 300.000339564
 300.000325304
 300.000196094
 300.000062289
 300.0001111
 300.000065863
 299.999919035
 299.999785997
 299.99976732
 299.999876695
 299.999954384
 299.999890339
 299.999844122
 299.999865175
 299.999933425
 299.999983832
 300.000006312
 300.000052059
 300.000050059
 299.999941218
 299.999732929
 299.999700235
 299.999680815
 299.99957434
 299.999592638
 299.999606303
 299.999664631
 299.999866564
 300.000063411
 300.000128042
 300.000118882
 300.000035248
 299.999958636
 300.000059513
 300.000273624
 300.000377881
 300.000257954
 300.000148793
 300.000245331
 300.000417047
 300.00040886
 300.000266045
 300.000022803
 299.99975155
 299.999707577
 299.999385818
 299.998615894
 299.997925996
 299.997774326
 299.998244091
 299.998644898
 299.998721107
 299.998866064
 299.998911269
 299.999259422
 299.999886181
 299.999872302
 299.999621199
 299.9992325
 299.998754476
 299.998647109
 299.998694868
 299.99873754
 299.9991345
 299.999619222
 299.999802816
 299.999907413
 299.99987323
 299.999936927
 300.000127171
 300.000170543
 300.00015069
 300.000079087
 300.000077396
 300.000101137
 300.000073781
 299.999952009
 299.999705457
 299.999598373
 299.999616738
 299.999526076
 299.999322979
 299.999244672
 299.999310623
 299.999477711
 299.99957857
 299.999479622
 299.999302198
 299.998800947
 299.998449054
 299.99868686
 299.998990864
 299.999005142
 299.99856622
 299.997999739
 299.998001471
 299.997888534
 299.997951652
 299.998620223
 299.999224491
 299.999716681
 299.999906233
 299.999795305
 299.999576624
 299.999517227
 299.999638292
 299.999855365
 300.000060651
 300.000236464
 300.000417377
 300.000477372
 300.000218608
 300.000075693
 299.99993198
 299.999658953
 299.999534858
 299.999499875
 299.999472943
 299.999488967
 299.999680896
 299.99987222
 299.999751731
 299.999633244
 299.999649244
 299.999634448
 299.999834197
 299.999993246
 299.999949061
 299.999805852
 299.999647513
 299.999600983
 299.999733753
 299.999903078
 300.000015921
 300.000097572
 300.00015344
 300.000105009
 299.999990115
 300.000042093
 300.000172254
 299.999967647
 299.999543004
 299.999342025
 299.999409566
 299.999539769
 299.999601794
 299.999707716
 299.999690577
 299.999633504
 299.999722286
 299.999877196
 299.999954887
 299.999870401
 299.99981969
 299.999826228
 299.999853785
 299.999876306
 300.000010545
 300.000223202
 300.000204263
 300.000120174
 300.000168556
 300.000246515
 300.000310209
 300.000357227
 300.000452778
 300.000571698
 300.000505297
 300.000316442
 300.000209864
 300.000081878
 299.99992235
 299.999843504
 299.999847069
 299.999785195
 299.999606723
 299.999500307
 299.999512118
 299.999575628
 299.999676928
 299.99963063
 299.999404576
 299.999333832
 299.999512275
 299.99970202
 299.999737801
 299.999574342
 299.999374942
 299.999377814
 299.999374961
 299.999323513
 299.99936217
 299.999467455
 299.999596685
 299.999703404
 299.999847042
 299.999736009
 299.999813559
 299.999925414
 299.999993344
 300.000009799
 300.000008533
 300.00006249
 300.000014277
 299.999992132
 300.000154451
 300.000258429
 300.000209738
 300.000080022
 299.999983842
 299.999920742
 299.999950549
 299.999891005
 299.999661661
 299.999556691
 299.999476911
 299.999466023
 299.999638124
 299.999714265
 299.999738776
 299.999752848
 299.999719384
 299.999804859
 299.999994285
 300.000018346
 299.999915287
 299.999921429
 300.000023814
 300.000105034
 300.000268243
 300.00063716
 300.000535592
 299.999884741
 299.999495265
 299.999578362
 299.9998114
 299.999790556
 299.999523604
 299.999463932
 299.999528971
 299.999608678
 299.999766091
 299.999944191
 300.000131225
 300.000141829
 300.000042119
 300.000135555
 300.000240458
 300.000130916
 300.000087845
 300.000245944
 300.000569651
 300.000559636
 300.000075438
 299.999850214
 300.00000774
 300.000145008
 300.000210088
 299.999966428
 299.99951568
 299.999396969
 299.999614589
 299.999752763
 299.999765656
 299.999845865
 299.999732941
 299.99959129
 299.999680809
 299.999736206
 299.99973392
 299.999765257
 299.999791984
 299.999718707
 299.999782648
 300.000006144
 300.00010428
 300.000169869
 300.000171524
 300.000188342
 300.000169622
 299.999986012
 299.999883112
 299.999906073
 299.999929297
 299.999921978
 299.999947929
 300.000009061
 299.999930547
 299.999749164
 299.999716254
 299.999868795
 299.999900625
 299.999848813
 299.999697182
 299.999484535
 299.999588781
 299.999826109
 300.000016977
 300.000173822
 300.0002124
 300.000223398
 300.000290404
 300.000238663
 300.000051351
 299.999944094
 299.999928952
 299.999902988
 299.999886748
 299.999877387
 299.999856301
 299.999899722
 300.000023211
 300.000195364
 300.000283936
 300.000079306
 299.999849187
 299.999890897
 300.000104039
 300.000405397
 300.000482258
 300.000498399
 300.000485444
 300.000464906
 300.000489762
 300.000357722
 300.000285963
 300.000194066
 300.000013281
 299.999863149
 299.999803055
 299.999861046
 300.000020839
 300.000025376
 299.99990174
 299.999937727
 300.000062971
 300.000093721
 300.000090371
 300.000053055
 300.000023276
 299.99998911
 299.999833918
 299.999766991
 299.99970612
 299.999669399
 299.999747116
 299.999798884
 299.999934844
 300.000218762
 300.000396927
 300.000333497
 300.000255944
 300.000193753
 300.000112937
 300.000147154
 300.000277177
 300.000325892
 300.000225576
 300.000200121
 300.000338778
 300.000418177
 300.000281019
 300.000078099
 299.999928076
 299.999862066
 299.999795781
 299.99912019
 299.998092847
 299.997673779
 299.998113774
 299.998848004
 299.999226627
 299.999149167
 299.999233425
 299.999190559
 299.999203818
 299.999689382
 299.999932191
 299.999929186
 299.99975033
 299.999333285
 299.998870714
 299.998729694
 299.998935694
 299.99934336
 299.999653108
 299.999833556
 299.999980598
 299.999880915
 299.999895544
 300.000158565
 300.00027374
 300.000288147
 300.00019729
 300.000004579
 299.999856032
 299.999859152
 299.999795732
 299.999559612
 299.999404942
 299.999374714
 299.999238423
 299.999088774
 299.999128008
 299.999231101
 299.999304524
 299.999277472
 299.999200205
 299.999228933
 299.999132679
 299.998922819
 299.998832868
 299.998922688
 299.998954333
 299.99889358
 299.998479958
 299.998057428
 299.997725239
 299.997480255
 299.99788449
 299.998452103
 299.999085568
 299.999599024
 299.99975783
 299.999606622
 299.999519189
 299.999768231
 300.000080206
 300.00020164
 300.000192087
 300.000190052
 300.000194866
 300.000070892
 299.999949773
 299.999972891
 299.99988508
 299.999711941
 299.999599709
 299.999447134
 299.999283452
 299.99939932
 299.999538051
 299.999513429
 299.999320947
 299.999345934
 299.999539499
 299.999633945
 299.999807226
 299.999868147
 299.99991664
 299.999885642
 299.999762094
 299.999789458
 299.999952474
 300.000050987
 300.000091374
 300.000143302
 300.000089937
 299.999959026
 299.999970964
 300.000040493
 299.99981283
 299.999457878
 299.999345428
 299.999423271
 299.999536271
 299.999633477
 299.999774581
 299.999776321
 299.999706468
 299.999789681
 299.999915395
 300.000013634
 300.000043671
 299.999981014
 299.999923951
 299.999898989
 299.999856037
 299.999896899
 300.000020221
 300.000003659
 299.999871572
 299.99984672
 299.999982637
 300.000134699
 300.000177422
 300.000267612
 300.000404265
 300.000445503
 300.000423624
 300.000317848
 300.000134938
 299.999999538
 299.999881794
 299.999785709
 299.999746053
 299.999620034
 299.999505355
 299.999504767
 299.999553928
 299.999717976
 299.999836576
 299.99965184
 299.999396246
 299.999353713
 299.999473244
 299.999649359
 299.999698326
 299.999657246
 299.999783886
 299.99984884
 299.999861753
 299.999903651
 299.999898951
 299.999954496
 299.999906662
 299.99987364
 299.999868713
 299.999936062
 300.000023904
 300.00008233
 300.00006093
 300.000033678
 300.000031311
 299.999967519
 299.999985019
 300.000102904
 300.000043956
 299.999929697
 299.999877907
 299.999810834
 299.99972676
 299.999728183
 299.999737795
 299.999599968
 299.999501307
 299.99945108
 299.999561102
 299.999859567
 299.999798532
 299.999521128
 299.999505059
 299.999639121
 299.999682588
 299.999692622
 299.999739312
 299.999791617
 299.999860709
 300.000146971
 300.000393748
 300.000433833
 300.000591175
 300.000549092
 300.000247247
 299.999936221
 300.000042002
 300.000376542
 300.00024075
 299.999809322
 299.999529087
 299.999528028
 299.999566036
 299.999636054
 299.999811609
 299.99992509
 299.999966088
 299.999972291
 299.999965803
 299.99994899
 299.999995667
 300.000178853
 300.000395295
 300.000594655
 300.000612124
 300.000346873
 300.000118207
 300.000024262
 300.000278502
 300.000497918
 300.000121619
 299.999808425
 299.999794216
 299.99983608
 299.999793539
 299.999734913
 299.999795518
 299.999800159
 299.999735287
 299.999737408
 299.999805874
 299.99983671
 299.999869588