# vtk DataFile Version 3.0
array.1
ASCII
DATASET STRUCTURED_POINTS
DIMENSIONS 1 321 161
ORIGIN 1500.01 799.99 0.001
SPACING 0 1.25 1.25
POINT_DATA 51681
 FIELD attributes 1
U 3 51681 float
3.66882401778 	0.189565676989 	2.69374207309e-05
 3.62708106283 	0.148298777071 	-0.000150587322386
 3.53211774071 	-0.0331607704717 	-7.73929736486e-05
 3.38351803157 	-0.289836430848 	3.08951213159e-05
 3.46383710705 	-0.53633966571 	0.000152714577701
 3.76296458026 	-0.662685432089 	-5.06484532394e-05
 3.95049324101 	-0.716214935142 	-6.21520698307e-05
 3.85485760931 	-0.550242199567 	0.000173869970518
 3.87628025415 	-0.221038132104 	0.00019188208607
 3.96554448931 	0.250341412995 	-0.000174003973776
 3.53897714258 	0.62317289825 	-0.000216875120952
 3.39170016709 	0.775143772817 	-7.64575180927e-05
 3.52066851257 	0.731243558099 	-0.000172601652409
 3.5987541671 	0.535906997966 	0.000100517332953
 3.73807245585 	0.269700008098 	3.48437899208e-05
 3.42206855838 	-0.0532530220832 	-0.000240710426657
 3.2468190006 	-0.148899754151 	-0.000358485942422
 3.57361302334 	0.278773021009 	0.000109085309958
 3.84528834054 	0.555285539021 	-0.000101626709963
 4.04002638921 	0.273536386251 	-0.000330660174133
 4.04107125793 	0.390209814627 	-0.000449376190931
 3.5836386865 	0.519543904297 	-8.55017720685e-06
 3.3045698913 	0.110471296582 	7.62624240115e-05
 3.48043999283 	-0.15968962498 	-9.72716975137e-05
 3.69459684878 	-0.1508258179 	3.56292516685e-05
 3.77059462446 	0.0391931032727 	-0.000128773465146
 3.91513810616 	0.118290802375 	-0.000128617430308
 4.2977447484 	0.220983645533 	0.000440330048271
 4.53953028784 	0.698285879582 	0.000309781510612
 4.64218887317 	0.998471089461 	-9.68074408029e-05
 4.91627661074 	0.913642326299 	-0.000106751793939
 4.92326086301 	0.978643913781 	-0.000642904490725
 3.81082529262 	0.83701295045 	1.34899207906e-05
 2.61159973659 	0.53426582128 	0.000424014355155
 2.37092955919 	0.292019041127 	0.000572605109677
 2.4500357758 	0.107254369135 	0.000274608100794
 2.66120867387 	0.203182182488 	-0.000347756516308
 2.85649457816 	0.121272176346 	-0.000398222624403
 2.73787032764 	-0.22933822735 	0.000237140490582
 2.89737336051 	-0.335656579112 	0.000275314806051
 3.10479537716 	-0.104445760663 	2.13885496804e-06
 2.93686126164 	0.273616347771 	-0.000302727384713
 3.09631461162 	0.615211142956 	-0.000161611555891
 2.97677250917 	0.781027102463 	-0.000448312275073
 2.32446440822 	1.04924890838 	-0.000158923153857
 2.04698590835 	1.26549568716 	-0.000163815524557
 2.20549790107 	1.18023519792 	4.87584692508e-05
 2.21861769116 	1.06202199336 	0.000138751273564
 2.03323447387 	0.852293886261 	9.35738270228e-05
 2.5942371845 	0.731881108457 	5.89011683432e-05
 2.82071565298 	0.849158396008 	-6.23400117528e-05
 1.86625927967 	0.545905056969 	-7.11908657065e-05
 1.6793518682 	0.333697677118 	0.000207112473865
 1.75843519212 	0.713819658171 	-0.000401991291225
 2.07991286206 	0.775575496794 	-0.000347374201445
 2.82459985832 	0.760310256933 	5.94927041807e-05
 3.15110729048 	0.869840002978 	3.37282393689e-05
 3.92314418723 	0.843876087985 	-1.62974066021e-05
 3.69174152589 	0.753516937885 	-0.000157549309458
 2.72071556576 	0.796547210698 	-0.0001754419886
 2.89835467311 	0.558317282967 	-0.000258686971566
 3.71032231771 	0.0168242074582 	0.000175279657107
 4.59280628541 	-0.165119417786 	0.000555363529383
 4.85805579159 	-0.171164337526 	0.000182872549613
 4.54236639502 	0.232374955804 	0.000135424347909
 4.24945372214 	0.42814819879 	-0.000209050042376
 4.2326126984 	0.0644089173238 	-7.02481851149e-05
 4.38305205367 	-0.285637558477 	0.000265532538395
 3.8633199585 	-0.148314749506 	0.000259678774733
 3.21746474944 	0.0613925504304 	0.000241153845418
 3.33957118038 	0.0334584047948 	6.60097230471e-05
 3.0449761779 	0.332976267781 	3.16908779081e-06
 2.44872022268 	0.374526168147 	0.000267042293188
 2.6195764018 	-0.0945393504001 	0.000107267747159
 3.50137355789 	-0.513463393356 	-1.56392099311e-05
 4.69064680071 	-0.313452640006 	0.000188487708475
 4.91158981574 	0.0394761425296 	-0.000559127099602
 3.96258552622 	0.0719280405103 	-0.000716547986905
 3.37490203545 	0.229309095573 	0.00012841821043
 3.55824603852 	0.466114123386 	0.000222364894748
 3.67847912642 	0.503383799463 	-0.000146547332068
 3.81447529833 	0.338361317607 	0.000104488746206
 4.06584256271 	0.555209093782 	-0.000301943718681
 3.98016346729 	0.936621845038 	-0.000252588789535
 3.62991591066 	0.664750492129 	0.000317230784109
 3.56176534788 	0.0692499667924 	0.000524721693192
 3.63508838621 	-0.116524786844 	-3.81047020544e-05
 3.51081622952 	-0.280505788043 	-0.00015457318671
 3.94272901115 	-0.334412838932 	-0.000216710199171
 4.0810044516 	0.231160798018 	-0.000618268961068
 3.56413008158 	0.459151463972 	0.000338453467745
 3.4196646928 	0.61050939933 	0.000327341634404
 3.34493692618 	0.640449804866 	-0.000239033028301
 3.49015881491 	0.0124998403724 	-0.000218106906967
 3.86100773306 	-0.0588701830815 	2.71231137203e-05
 4.51817323697 	-0.046184161635 	0.000364149660783
 4.52700588923 	0.226166722347 	-0.000562775770978
 3.55021899217 	0.639839377791 	0.000499105013856
 3.51938196779 	0.40438896172 	0.000141507244978
 3.89716165033 	0.0142711778869 	-0.000294213189382
 3.64516709478 	-0.247625048775 	-0.000269416871983
 3.21862768231 	-0.314013704684 	-0.000174799143013
 2.99159971238 	-0.395564551753 	-9.42966705032e-05
 3.28162621468 	-0.260862121128 	-7.26371839481e-05
 3.54574102361 	-0.160390486414 	-0.000337198950874
 3.34052814039 	-0.434602494136 	-0.000221398907139
 3.12712758965 	-0.673589519063 	9.78904466238e-05
 3.35596852103 	-0.447523070036 	-2.43850337534e-05
 3.61771079745 	-0.193624346199 	-0.000255255164204
 3.53630360473 	-0.255281325849 	-0.000246535655039
 3.60413624938 	-0.25145246151 	-0.000242282221018
 3.18011996449 	-0.0208614573937 	-0.000370888184805
 2.52846014999 	0.0310237732197 	0.000114103395297
 2.84310790901 	-0.0933889661216 	0.000414876881138
 3.36735271502 	-0.237574917123 	-0.000131090822568
 3.43555478884 	-0.326110946321 	-0.000265481545364
 3.24840139106 	-0.215831739933 	-0.000283540158208
 3.57427617002 	-0.220082123174 	0.00014899340839
 4.04079445347 	-0.164395952654 	-0.000651618212732
 3.34700997676 	0.266939253104 	-0.000720498891928
 2.46753254438 	0.328740475523 	1.89717572549e-05
 2.30345075904 	0.102031505568 	0.000246420836327
 2.94254107126 	0.0989176726531 	0.000178144073995
 3.6079633469 	0.204477068355 	-0.000648594113181
 3.25672258974 	0.377202062297 	-0.000574981084576
 3.18451578408 	0.318672676432 	0.000113608319956
 3.77379752197 	0.391685721996 	-0.000417620723176
 3.76131631669 	0.431548316197 	-0.000188252778036
 3.19082897304 	0.0311746260814 	-0.000252088958898
 3.06356228635 	-0.292045797953 	0.000149127834424
 2.99398288223 	-0.302945102839 	-8.10370818602e-06
 2.85917989605 	-0.552923400008 	0.000228579818025
 3.36915944493 	-0.688022023398 	0.00013518923137
 3.60908354956 	-0.065463607031 	-0.000216386253933
 3.31963871394 	0.382371620566 	0.000142740108472
 3.21642084222 	0.324227176719 	0.00031451179159
 3.27699017274 	0.240313812764 	0.000275742400092
 3.33099369091 	0.335306829673 	-1.89853451362e-05
 2.98871423699 	0.284656458652 	-0.000278220762075
 2.80320696836 	0.32744033047 	-0.00013035730557
 3.02091809962 	0.53667558303 	-0.000360526915373
 3.08795560686 	0.422370495188 	-0.000267773789957
 2.82836628338 	0.389634755082 	8.68325949207e-06
 2.40167104038 	0.251874913358 	-7.05527919408e-06
 1.97338805713 	0.157825780265 	7.98722525266e-05
 1.78238601542 	0.0877677193009 	5.49255472399e-05
 2.45859969545 	0.130357935581 	3.87963455657e-05
 3.27519227171 	0.232193271497 	-0.000285999569954
 3.67620371285 	0.0483929077138 	-0.000206188191906
 3.5416395638 	0.0636015939985 	-0.000459756373894
 2.55934776622 	0.275102767451 	-0.000476376054303
 2.00992580897 	0.217907362686 	2.91261445995e-06
 2.48605006801 	0.103813142254 	0.000134718018767
 2.93792057108 	0.0296336359206 	-5.07597330262e-05
 3.11994355198 	0.0393612845141 	-0.000209363385589
 3.10993089442 	-0.0664508891526 	-0.000189154772846
 3.40031344919 	-0.190795894897 	-0.000271531911342
 3.66931980589 	-0.0917003976468 	-0.000357419441622
 3.3319387803 	-0.0876609628608 	-0.000118636130021
 3.05543904558 	-0.035131754287 	-3.92070555075e-05
 3.05299546847 	-0.00141811953244 	-7.97393516956e-05
 3.1072817982 	0.0242692274266 	-0.000155149943004
 3.24671418951 	0.279926303937 	-0.000103584772972
 3.00577157439 	0.585156381567 	3.23749293542e-05
 3.24706543607 	0.804996986224 	0.000334631537797
 3.7071264242 	1.06128039453 	-0.000207641125296
 3.11754403156 	1.00126943922 	2.45986533606e-06
 2.82502340654 	0.836818319374 	0.00038566444144
 2.97784627809 	0.416615293262 	0.000265821447253
 2.87630508422 	-0.167308089041 	6.32492608522e-05
 2.61718413494 	-0.377528535221 	-0.000296854570759
 2.21069125912 	-0.297067938873 	-0.000391614473812
 1.73523247204 	-0.267250962116 	-0.00032907379326
 2.06455426957 	-0.158874978263 	-5.94737573688e-06
 2.94773575542 	0.326628760288 	-7.71581091801e-05
 2.8262845901 	0.285645658718 	-0.000198176750389
 2.05316024176 	-0.0163108968094 	-8.83890025909e-05
 2.26159283796 	-0.145122892286 	-0.000173864964575
 3.86744995488 	-0.155247596787 	0.000275261541728
 4.25794532779 	0.243609741484 	0.000272881730368
 2.9709912618 	0.438437591056 	0.000275702571438
 2.41622696259 	0.468293967944 	0.000228641190819
 2.28074498514 	0.201391845439 	-0.000120007586365
 2.74835210049 	0.206568790996 	-0.000149979495572
 3.42118287946 	0.390008210254 	-0.000563450165326
 3.58790367549 	0.384537850458 	-0.000243419923658
 3.76009519122 	0.38613676001 	6.2980483022e-05
 3.69592957158 	0.448237725962 	-8.26204182995e-05
 3.43136792201 	0.463982175484 	-0.000108215810499
 3.10234002201 	0.0671287625821 	0.000106635842836
 2.78497797243 	-0.204025917685 	2.28188340888e-05
 3.45043341065 	0.103771217624 	-0.000139167087179
 3.22851752239 	0.746359826023 	-0.000149700244624
 2.21010560342 	0.686741785884 	0.000832440961924
 2.60578920487 	0.297313707553 	0.000141802925116
 3.14301879201 	0.140772215927 	-0.000117229588089
 3.2048542931 	-0.0174567851061 	0.000179519962453
 2.96057267295 	-0.0536618365263 	-3.63295213715e-05
 2.865011431 	-0.432617804619 	-6.75105693603e-06
 3.0622075434 	-0.603632533418 	-0.000258356710917
 3.63693741895 	-0.237385208673 	0.000240455658209
 4.17917419499 	0.145544388011 	-0.000617540896761
 3.81320598499 	0.320327874359 	-0.000977365270847
 3.26541686027 	0.187061760706 	-0.00017431984728
 3.32041555941 	0.0919175343365 	0.000154568395664
 2.92688807545 	0.146294294341 	-0.000273385929626
 2.6812991118 	0.339194028114 	-0.000254117584774
 2.99456883653 	0.278503120197 	-5.33684694844e-05
 2.87239201597 	-0.0723430993693 	2.53870689705e-05
 2.9799243102 	-0.128782848961 	-7.47095877604e-05
 3.29526936761 	-0.0220742335505 	-0.000124703686291
 3.70437542886 	-0.337940431284 	0.000239033192108
 3.96629967748 	-0.503895715711 	-0.000637138328918
 3.38676842884 	-0.288052086635 	-0.000492417994669
 2.46874254105 	-0.15122917698 	4.91599494362e-05
 2.4004577142 	-0.384655997781 	-4.3187458237e-05
 3.38981043966 	-0.295224085827 	-0.000161526216007
 3.78922775913 	-0.219405482706 	5.41527370316e-05
 3.45720304359 	-0.349838550929 	-4.63381004386e-05
 2.85821162867 	-0.0555105735209 	-0.000573748898373
 3.06270183724 	-0.135185715737 	3.60499798304e-05
 3.86685512152 	-0.390357007061 	0.000708254190301
 3.93350051153 	-0.100403646849 	0.000297642788516
 4.11855800887 	0.32013036423 	-0.000314651996815
 4.35940397687 	0.636425943612 	-0.000540325043415
 4.62752718154 	0.680074064028 	-0.000251779670793
 4.89902729214 	0.715454941581 	-0.000171462093681
 4.22695273067 	0.930951747759 	-0.000154535501034
 3.84871623736 	0.886498912626 	0.000344056180958
 4.28622420018 	0.637309215331 	0.000564112945933
 3.62114341045 	0.877954452328 	1.79582278927e-05
 2.38029182251 	0.74793810998 	6.73672500347e-05
 1.99571575286 	0.351360314754 	0.000211807795966
 2.13877757546 	0.464353458708 	-0.000412817613428
 2.64796649582 	0.335047336059 	5.96539419118e-05
 3.42712579994 	0.37022311675 	0.000269141786264
 3.66700705917 	0.452929429475 	8.36825680028e-05
 3.56856781492 	0.444897640248 	0.000169221333424
 3.4939437904 	0.490267247044 	-0.000125862524934
 3.54375774728 	0.694942959531 	-0.000227107410767
 3.70654490093 	0.910573051707 	-0.000179605888535
 3.20916278116 	0.792085015363 	-6.60975375678e-05
 2.83398156709 	0.338236278523 	0.000121986078006
 2.70416599187 	-0.272699158199 	0.000412893349891
 2.63768647803 	-0.62847694993 	0.000381435820714
 3.26298287019 	-0.241956288047 	0.000289717186467
 3.54396365218 	0.113907697226 	-0.000524985173113
 3.15668689111 	0.0416835073076 	-0.000620710541427
 2.61140452881 	0.042951956021 	-0.000389428462163
 2.73667979843 	0.222320010267 	0.000157158266053
 3.18385485745 	0.555184978339 	-0.000166580910334
 3.13440451228 	0.815563707001 	-0.000206413095346
 2.93951792947 	0.728326096119 	0.000195724144876
 2.6889729799 	0.383309898811 	0.000142461849494
 2.63863109881 	0.167819936991 	-0.000239010947955
 2.92866770753 	0.247426972341 	-0.00022813408466
 3.3751466244 	0.308402313482 	-4.21743856894e-05
 3.42149145914 	0.198428923696 	4.56061616827e-05
 2.76957929929 	0.339235840569 	0.000345424196638
 2.21513451545 	0.229029689498 	0.000216558227718
 2.41354029666 	0.0602503895301 	0.000116166832204
 2.77834961274 	0.213898386175 	-5.40898242534e-07
 2.99694316169 	-0.020198851588 	-2.96479377352e-06
 3.12437220547 	-0.479844934813 	9.66582918154e-05
 3.15930437468 	-0.606612815911 	-7.54893405562e-05
 3.92146440672 	-0.301836703596 	-0.000109174103049
 4.35335508766 	-0.195797513474 	-0.000293671349287
 4.24284710325 	-0.403953627513 	-7.15531081415e-05
 4.31182898248 	-0.243693359433 	-0.000177389260847
 3.838292457 	0.428498903615 	-4.16448612285e-05
 3.25203068857 	0.747688209921 	0.000244536645108
 2.99669737855 	0.16361083084 	0.000683119998294
 2.81238482344 	-0.271079677123 	-0.000117917201055
 2.77507735521 	-0.388124997057 	-6.78609539354e-05
 2.87347318817 	-0.267175545842 	5.05396176888e-05
 2.53267444835 	0.240754518557 	0.000114013078467
 2.5104173362 	0.336696756932 	-0.00012273715946
 2.75220677138 	0.507870890863 	-0.000606478477135
 2.82999546285 	0.538922248575 	-0.00062118465555
 3.31167457943 	0.172853872842 	0.000213145412908
 3.74086164939 	-0.640380099538 	0.000401193370726
 4.4039865082 	-1.15070076916 	0.000893727850398
 4.73099921111 	-0.585181726905 	-0.000132398708806
 3.49287025639 	-0.0394871437159 	-0.000263780772465
 3.088555274 	0.139986190234 	5.14258589547e-05
 3.86103078067 	0.317708620688 	-0.000369274431812
 3.92008493869 	0.22927370248 	-0.000671045565222
 3.92691391657 	-0.0889843191916 	0.000273193157319
 4.39959225538 	-0.314936209586 	7.92581927462e-05
 4.72602723665 	-0.410352044924 	-0.000614756352429
 4.03682212264 	-0.206468626812 	-0.000867281717971
 2.69455097807 	-0.123817094132 	-0.000684239618063
 2.34432064935 	0.258814027658 	-0.000106458683871
 3.23896505243 	0.683951816829 	-0.000233655010285
 4.09640693561 	0.767483690342 	-0.000185893589219
 4.02438446791 	0.682620917017 	-1.97013882488e-06
 3.39209080087 	0.242202988822 	0.000133551573927
 3.3009827075 	-0.0456180056675 	0.000143168194506
 3.49228133945 	-0.360323958153 	-0.000411952858097
 3.56647898249 	-0.562237944786 	-0.000169952533001
 4.10467128968 	-0.367909166407 	0.000164022159751
 4.32766716602 	0.037875544449 	-0.000156363880351
 3.92507162311 	0.619720958404 	-0.000283362693783
 3.70244178782 	0.994934712514 	-0.000319592304518
 3.56328412757 	0.775100416788 	-0.000438260747271
 3.39435488217 	0.438851111117 	-0.000501575880517
 3.35612190833 	0.579162174321 	-0.000203429692247
 3.48037547185 	0.668935907668 	-0.000118842845259
 3.5521415118 	0.70482673056 	-0.000189402253379
 3.56998833942 	0.698062286346 	-0.000140337607037
 3.50484258633 	0.507673744293 	-7.61550936492e-05
 3.51061096438 	0.429725959072 	-0.000126587464167
 3.97374871742 	0.560956535416 	4.54042773582e-05
 4.53300587164 	0.666131245418 	2.25378866541e-05
 4.56562261828 	0.68892983379 	-1.9955582433e-05
 3.95903979712 	0.727228221762 	-0.000185627111141
 3.75047658898 	0.355351088184 	0.000110027376045
 4.36171165836 	-0.0621057631247 	0.000427162162767
 4.73253706165 	-0.0643433234458 	-0.000214954039943
 4.78488873435 	-0.0150791165719 	-0.000347071171824
 4.70999361072 	-0.161135684158 	-0.00067933745258
 4.50317756326 	0.196308254648 	0.0248358410112
 4.67412421165 	0.140592478199 	0.0509104067526
 4.7574919 	0.0224873957861 	0.0935346550721
 4.65647955179 	-0.0765327066152 	0.1088950003
 4.57711975046 	-0.147974447159 	0.087604384864
 4.85827400153 	-0.256630803302 	0.0746830233407
 5.18923572219 	-0.320153714565 	0.0559020479368
 5.20252309886 	-0.196522990022 	-0.0256136374161
 5.14141213346 	0.0416237353603 	-0.188456981615
 5.34265233329 	0.292586930211 	-0.255829616545
 5.40690256512 	0.416218773858 	-0.10911002373
 4.99278833021 	0.50951159637 	0.0213553934934
 4.54376506897 	0.478012457799 	0.0803297877395
 4.63964842149 	0.346052319391 	0.0972830193112
 5.0449124522 	0.231810029866 	0.0972146215711
 5.15540959508 	0.0232976622742 	0.0763551903697
 5.37649566292 	-0.122585457996 	0.0476203707855
 5.70208579485 	-0.0203982992785 	0.0117738977674
 5.69893401311 	0.120103352143 	-0.0492257136088
 5.55835517422 	0.0814268836683 	-0.05119360446
 5.17999898806 	0.167492186351 	0.0296274286448
 4.82027039701 	0.299526723345 	0.130246929541
 4.86559364858 	0.0880284927426 	0.130627186182
 5.19949560564 	-0.10541288004 	0.0348373827877
 5.51358880568 	-0.0135065384619 	-0.0590987997483
 5.45924705261 	0.173715553092 	-0.0697871414144
 5.24280602344 	0.235683864748 	0.034603248951
 5.20074735783 	0.267531172482 	0.0677971849726
 5.30997177255 	0.373115428354 	-0.0334854104053
 5.49496333434 	0.392133936537 	-0.110910102005
 5.51938872889 	0.264868080825 	-0.203836162529
 5.06059973538 	0.277969680748 	-0.146424188287
 4.96138463807 	0.488707107295 	0.023048860438
 5.14433032622 	0.77296751188 	0.109482678896
 5.03029393882 	1.01060424152 	0.10190800579
 5.29307188878 	1.13282935585 	-0.0569740452396
 5.17938010044 	1.20288767704 	-0.107586143642
 4.40597286902 	1.07417422525 	0.0375216638609
 3.8563407112 	0.816372848371 	0.200809232308
 3.83594304023 	0.601299450958 	0.166578009235
 4.06741887112 	0.474621567209 	-0.00407740261709
 4.28826324783 	0.538213920666 	-0.0920580549604
 4.43220529341 	0.766561263963 	-0.108069908502
 4.13223532956 	0.724827381829 	-0.0527373393509
 3.75834367681 	0.457529373557 	-0.0190661272877
 3.78173997701 	0.281372369608 	0.0357706602805
 3.95729879763 	0.265213972894 	0.146232424844
 4.14342764168 	0.364022046963 	0.169717782809
 4.09112028853 	0.440121969487 	0.107508341761
 3.942355188 	0.484406487946 	0.0828852586184
 3.79955940536 	0.646911476588 	0.167021309683
 3.64251078726 	0.839619825323 	0.299372370325
 4.1535597156 	0.757535097541 	0.260202534842
 4.63325240552 	0.492470272858 	0.0955864368911
 4.85511194111 	0.524733676778 	0.081822580886
 4.99225412 	0.725717512683 	0.073148913579
 4.63294721578 	0.763878184776 	0.0141834162656
 4.32553131533 	0.689313098304 	0.0445971443656
 3.65325331799 	0.520774981872 	0.0804599995908
 3.13703128035 	0.525363572398 	0.0592926686343
 3.36397368902 	0.349274666743 	0.191492246529
 3.83560043542 	0.0938743282138 	0.305523060445
 4.33104454978 	0.0818107884248 	0.187261611253
 4.69591102851 	0.206777865854 	0.0443218903323
 4.91964892176 	0.490630723921 	-0.0615118647446
 4.82171181886 	0.572003212295 	-0.00834022481073
 4.70898210488 	0.464556065286 	0.120748717879
 4.83225826159 	0.372946371092 	0.080119072215
 4.88073022331 	0.354938186541 	-0.01596834116
 4.72570451676 	0.435063902675 	0.00964168147249
 4.76239106561 	0.444555320201 	0.0125985268779
 4.7584906656 	0.463073882113 	0.0323975055128
 4.33228044642 	0.553916275925 	0.150765745192
 3.78803010347 	0.378566624012 	0.226064351276
 3.75978829244 	-0.0107684512381 	0.153733182186
 4.54274304195 	0.124903731952 	-0.100149155083
 5.02326369173 	0.276791500611 	-0.189559588372
 4.90593052906 	0.117985463391 	-0.0699750328238
 4.90408975009 	0.237294895434 	-0.0357071863418
 4.91011083143 	0.29950410875 	-0.0373895396983
 4.65551761092 	0.139525919917 	0.0288193559018
 4.83099950869 	0.0530879129749 	-0.0134789954238
 5.0538561715 	0.226084247624 	-0.135185552266
 4.33989467456 	0.523134014771 	0.0165784392435
 3.59007296591 	0.466734073676 	0.275712771341
 3.78738052976 	0.301385452738 	0.202468058117
 4.29559009165 	0.231466614004 	0.0493613200541
 4.44999283263 	-0.012030826386 	-0.00188506626116
 4.58482840804 	-0.155071666722 	-0.175033628514
 4.53271179037 	-0.0760469479002 	-0.102860738153
 4.25199564161 	0.0602813238899 	0.108995752892
 3.95831906644 	0.207113420046 	0.0636010045996
 3.85445108621 	0.128724695154 	0.0291289092242
 4.461460696 	-0.0732007083431 	-0.024437821752
 5.00640852995 	-0.0530518412666 	-0.0560801467523
 5.17061788462 	0.0487428588542 	-0.131260824976
 5.18468690619 	0.190211533474 	-0.0808128314389
 4.67722748701 	0.404544119881 	0.152645079149
 4.43626203467 	0.485334172635 	0.174358219333
 4.45604059514 	0.236059712065 	0.126190807291
 4.35321394383 	-0.0157757418698 	0.0618253204182
 4.42001806039 	-0.127416453645 	0.0165139588988
 4.5659816442 	-0.178204076155 	0.00200923719999
 4.74580356813 	-0.119118178678 	-0.0540107985908
 4.798452883 	-0.107665884341 	-0.0695996748696
 4.76205364509 	-0.19728525408 	-0.015814449284
 4.87505362904 	-0.207954586497 	-0.0407236669106
 5.04844404459 	-0.0889748264222 	-0.15457432152
 5.20766140592 	-0.0372333561947 	-0.186625700017
 5.38937596297 	-0.0823570245498 	-0.139197916533
 5.4874484764 	-0.0108092194814 	-0.143205522479
 5.18418990687 	0.105232367287 	-0.0750710938334
 4.90295557123 	0.0680366693445 	0.02455229516
 5.00076098538 	0.0212700583 	-0.054248607414
 5.00345695768 	0.0668035449309 	-0.131640426695
 4.90143356872 	0.184502395437 	-0.12880403465
 4.7388518131 	0.360574947506 	-0.0903525302397
 4.8405854977 	0.372860177566 	-0.169449758408
 5.14409052901 	0.325181906199 	-0.313633086014
 4.901038341 	0.361372995194 	-0.246241796573
 4.44084303788 	0.301419729649 	-0.0793599791107
 3.99532421617 	0.198309192341 	0.0764102175384
 4.24937278185 	0.0355172690929 	-0.0290260681282
 4.76396829858 	0.0217274392541 	-0.213971933175
 4.53733936842 	0.289595009039 	-0.116205887259
 4.46412256735 	0.444414259389 	-0.0736739110601
 5.00705336945 	0.489619305611 	-0.136463326961
 5.22129038156 	0.446198457305 	-0.0542643812412
 4.72209072364 	0.264632157918 	0.0893955310148
 4.38275523442 	0.235399579132 	0.0714772072941
 4.14435322918 	0.197981590225 	0.0455770179256
 3.95372370155 	-0.00752609701881 	0.0818890250913
 4.39527768377 	0.0251922806095 	-0.0762118635648
 4.75914700722 	0.227637123711 	-0.176695694857
 4.47421819444 	0.383364047555 	-0.0440966999566
 4.15526102445 	0.513648811072 	0.0710531452381
 4.01288075471 	0.485392530512 	0.083641493382
 4.25290632969 	0.300486169535 	0.0360000028274
 4.38079376541 	0.171964292488 	0.0258683569298
 4.34288749367 	0.233533661487 	-0.0104937082829
 4.55919470604 	0.375629356157 	-0.0477360067945
 4.64448300519 	0.442049217038 	-0.0411619666684
 4.50888771183 	0.534430958803 	-0.0420466607295
 4.32833206462 	0.628707449805 	0.0216553619456
 4.06762929179 	0.709618318949 	0.102986630775
 3.68660638331 	0.557471724449 	0.11706227047
 3.67789564688 	0.43594332338 	-0.00372406077366
 3.71724324098 	0.547138775909 	-0.051357932988
 3.82766405103 	0.518007592065 	-0.00289825851115
 4.07711550479 	0.344439474445 	-0.0365318665885
 3.92809665963 	0.271495291085 	-0.0125662596698
 3.8731611494 	0.360980794669 	0.0380218603173
 3.9618128362 	0.403708782115 	0.0179307894486
 4.08696004201 	0.420777975428 	-0.0645597222651
 4.35786239625 	0.534438192487 	-0.115858275087
 4.33728210566 	0.52165365944 	-0.0460013688673
 4.18457856454 	0.455390445085 	0.0108942703231
 4.24267493008 	0.433434704212 	0.0101733685733
 4.32855738575 	0.346097786787 	-0.0150872101846
 4.3377967406 	0.276631201907 	-0.0710725101664
 4.51919297166 	0.233543398516 	-0.137717646217
 4.85632349256 	0.323621899324 	-0.151857659279
 4.97644003344 	0.406417301963 	-0.122654970728
 4.60405307122 	0.497726690815 	-0.0211752876137
 4.60793208685 	0.693749425504 	0.0098882817488
 4.75153031853 	0.809818549914 	-0.00358283985531
 4.05046112193 	0.745011062364 	0.159254296398
 3.59370953782 	0.654521077769 	0.301448707579
 3.50076402476 	0.329096079493 	0.289529550206
 3.46228416218 	-0.0921274004331 	0.102818563495
 3.81803460686 	-0.146147726859 	-0.0491184403093
 4.00711427887 	-0.291566822551 	-0.0570182426826
 3.98888364952 	-0.433705309424 	-0.0174685887473
 4.20310622008 	-0.297621224185 	0.0212663652544
 4.32964305607 	-0.358310351144 	0.0423172691763
 4.29457841401 	-0.45595231268 	0.0735273549276
 4.24594464595 	-0.431002952777 	0.118780767639
 4.60874713189 	-0.361708559946 	0.131154062594
 5.32272654497 	-0.148917733855 	0.0237066271353
 5.4236649099 	0.122907761256 	-0.0410562866124
 5.03688287621 	0.28135691297 	0.049143119903
 4.6884386277 	0.518418779131 	0.0967677816995
 4.32427193877 	0.663016420213 	0.038494991995
 4.30758991929 	0.638243294526 	-0.0727442426268
 4.56398675264 	0.528779924781 	-0.104711609229
 4.60942974724 	0.413054512772 	-0.0100620999828
 4.42090584604 	0.38666123153 	0.079437171492
 4.35189932477 	0.342975603104 	0.068622774893
 4.3194661815 	0.414007229275 	0.0867056031638
 4.15072483687 	0.337117599684 	0.121469655244
 4.19134471702 	0.291941816616 	0.0141695283917
 4.70133716199 	0.304556728971 	-0.141326267313
 4.49523186906 	0.322090910422 	0.0191565588184
 3.7089579382 	0.331555568164 	0.202747929277
 3.68944009269 	0.229641145746 	0.070290214961
 3.86294265982 	0.0935177231558 	0.0262066631993
 4.05663714552 	0.017737420764 	0.0218737037748
 4.12106133714 	0.12460824817 	0.048520673196
 4.04724546055 	0.0743824294356 	0.0339004831994
 3.70143730333 	-0.0836449961033 	7.7900460414e-06
 3.89313637822 	0.12377041852 	-0.120791871627
 4.82204699411 	0.447690756508 	-0.307002367872
 4.92672742719 	0.527624258695 	-0.15810542447
 4.39819776741 	0.450996168105 	0.063051657437
 4.17695192757 	0.262843164314 	-0.0462311573237
 4.045497539 	0.153280929736 	-0.109325102625
 3.93055021486 	0.093372218005 	0.0944072590532
 3.86321259009 	-0.0395801567185 	0.191589452802
 3.77067687933 	-0.150173639979 	0.112683857619
 3.93915730428 	-0.172522770095 	-0.0134947421306
 3.92854160463 	-0.169312609857 	0.0279006782424
 3.93387396896 	-0.248994935173 	-0.00156122110552
 4.11107789 	-0.429886730041 	-0.189020984388
 4.01629826891 	-0.433999130672 	-0.191867529671
 3.80816884161 	-0.196689964896 	-0.100691108621
 3.69015770594 	0.084719940398 	-0.0812647126732
 3.82871824304 	0.253845117215 	-0.0395122917164
 4.07687201749 	0.229709440993 	0.0173484580472
 4.22106461794 	0.0725826140144 	-0.0877087204507
 3.67080556813 	0.0251946961354 	-0.0854173785571
 3.57028157937 	0.175721064288 	0.207126705989
 4.33769566996 	0.38375936659 	0.156856364638
 4.60642222159 	0.639824992757 	-0.235356035298
 4.72511949253 	0.826519811445 	-0.362504683952
 4.82735839345 	0.852387024197 	-0.283639136081
 4.88229609367 	0.806684866064 	-0.177766852025
 5.15501428278 	0.745809663006 	-0.0544173857227
 5.06101946726 	0.94758576759 	0.0957845676469
 4.64379592332 	0.979227628525 	0.247653787312
 4.88414733103 	0.519707724542 	0.225336554375
 4.80937234533 	0.277527861417 	0.165331299731
 4.01723504054 	0.184467840123 	0.20994691446
 3.93460432818 	0.0941346977801 	0.0719629784879
 4.36228394065 	0.192572788489 	-0.0151292123151
 4.67245357621 	0.240517509151 	0.0868212128766
 4.979053046 	0.188345133284 	0.0927694601382
 5.03050879683 	0.224615966999 	0.0361501037582
 5.07110641537 	0.309900147272 	-0.0526292860256
 5.17506067216 	0.478915523659 	-0.139469338611
 5.12773275347 	0.655451149845 	-0.128479048796
 4.99653102919 	0.745038427235 	-0.0437450093794
 4.56061868378 	0.768349502468 	0.0954896755071
 4.29153304075 	0.627926419349 	0.202185245735
 4.4603433964 	0.511100913322 	0.106923624979
 4.66177302752 	0.629980004855 	-0.0913641027207
 4.8935645706 	0.824462571257 	-0.254444917137
 4.77953786749 	0.932398893377 	-0.26175913738
 4.37790836957 	0.852386443798 	-0.163099046301
 4.07350686234 	0.552508479828 	-0.119791196163
 4.24434441135 	0.353461053712 	-0.145812908479
 4.63654234888 	0.478082689475 	-0.224158423107
 4.59078140843 	0.640809953042 	-0.194801726408
 4.40152721957 	0.65870039087 	-0.102184526485
 4.10888378788 	0.701113767736 	-0.0206681857981
 3.66238478182 	0.705224610777 	0.0639760818552
 3.57960289644 	0.506019710519 	0.0575824310999
 3.84887224912 	0.24992162308 	0.0598087992543
 3.90978439242 	0.0613759065828 	0.0945890451236
 3.63284486288 	0.141495440689 	0.092422252808
 3.59694441121 	0.340066048901 	0.108706591727
 3.80579572925 	0.339182805535 	0.0776946305792
 3.87551017404 	0.284109671725 	0.0307230217648
 3.91638793552 	0.167940816221 	0.080924513265
 3.88964583043 	0.0227581675573 	0.114493781558
 3.90857714343 	-0.0442911429471 	0.0118680966836
 4.34748725216 	0.0224710546177 	-0.111714876402
 4.84161771809 	0.177001469243 	-0.0908719240792
 5.0368066883 	0.188103684688 	-0.0739805093506
 4.96604622092 	0.200067184905 	-0.105390931647
 4.63489666132 	0.234851019933 	-0.0575224076222
 4.07289139514 	0.280663588016 	0.184269797112
 3.61559365494 	0.0716388151617 	0.328171185521
 3.64847698966 	-0.256434099762 	0.226291198957
 4.04505893492 	-0.235549301468 	0.0994413235477
 4.35089607889 	-0.0461900213753 	0.046858339678
 4.12079582387 	-0.0937749750717 	0.0610869201241
 4.18013919185 	-0.166551966404 	-0.0319593616433
 4.50039013848 	-0.20250216162 	-0.0946697036783
 4.51916301677 	-0.260237484313 	0.0196054202834
 4.47109481955 	-0.135678448475 	0.1963468652