# vtk DataFile Version 3.0
array.1
ASCII
DATASET STRUCTURED_POINTS
DIMENSIONS 1 321 161
ORIGIN 1500.01 799.99 0.001
SPACING 0 1.25 1.25
POINT_DATA 51681
 FIELD attributes 2
T 1 51681 float
299.999506973
 299.999459572
 299.999471786
 299.99946134
 299.999487156
 299.999721672
 300.000046436
 300.000120549
 300.000022684
 300.000063121
 299.999951657
 299.999738256
 299.999691229
 299.999773579
 299.999828422
 299.999836575
 299.999734653
 299.99981721
 300.00000905
 299.999933686
 299.999906693
 299.999914022
 299.999745629
 299.999487614
 299.999554538
 299.999878182
 300.000099701
 300.000149935
 300.000129113
 300.000083362
 299.999992666
 300.000081435
 300.000148443
 300.000025832
 300.000057446
 300.000225192
 300.000055892
 299.999570614
 299.999280831
 299.99926287
 299.999255074
 299.999097184
 299.999054291
 299.999199033
 299.999360872
 299.999552497
 299.999660383
 299.999651056
 299.999675571
 299.999677038
 299.999652535
 299.999864378
 300.000264729
 300.000534326
 300.00055766
 300.000394876
 300.000260251
 300.000293429
 300.000159979
 299.999925379
 299.99983073
 299.999805557
 299.999681903
 299.999368843
 299.999397866
 299.999619673
 299.999594373
 299.999638143
 299.999766856
 299.999618505
 299.999416035
 299.999518899
 299.999602609
 299.999658963
 300.000100299
 300.000212012
 299.99988152
 299.999710091
 299.999696384
 299.999715076
 299.999609617
 299.999562849
 299.999599354
 299.999819398
 299.999968869
 299.999887903
 299.999732903
 299.999625126
 299.999707064
 299.999781546
 299.99978151
 299.999789388
 299.999797616
 299.999882982
 299.9999155
 300.000050159
 299.999797827
 299.999358321
 299.99961624
 299.999782966
 299.999648512
 299.99966274
 299.999709669
 299.999650833
 299.999638998
 299.999749887
 299.999888427
 299.999870976
 299.999782819
 299.999797631
 299.999896797
 300.000136044
 300.000058399
 299.999759635
 299.99958353
 299.999478192
 299.999623265
 299.999825785
 299.999787585
 299.999767767
 299.999948711
 300.000113371
 300.000020251
 299.999839195
 299.999813457
 299.999740629
 299.999657738
 299.999664256
 299.999728291
 299.999726535
 299.999655418
 299.999742325
 299.999840378
 299.99961223
 299.999490771
 299.999615342
 299.99967717
 299.999690772
 299.999725218
 299.999709762
 299.99969145
 299.999769486
 299.999772628
 299.999725492
 299.999775228
 299.999747437
 299.999664605
 299.999859777
 300.000003671
 299.99980548
 299.999700231
 299.999732962
 299.999787289
 299.999796487
 299.999752451
 299.999693592
 299.99969329
 299.999722197
 299.999650116
 299.999640846
 299.999686719
 299.99973583
 299.999798363
 299.999880934
 299.999930079
 299.999871081
 299.999741842
 299.999576602
 299.999522505
 299.999589345
 299.999707163
 299.999763749
 299.999771811
 299.999738569
 299.999699836
 299.999920891
 300.000045834
 299.999515843
 299.998851939
 299.998834666
 299.999127
 299.999521761
 299.999936324
 299.999961836
 299.999627293
 299.99941941
 299.999472195
 299.999574484
 299.999773894
 299.999954222
 300.00007659
 300.000246552
 300.000252132
 300.00011144
 300.000095125
 300.000088208
 300.000004407
 299.999801612
 299.99963912
 299.999648247
 299.999802585
 300.000063893
 300.000059015
 299.999802021
 299.999744819
 299.999812571
 299.999559946
 299.999361936
 299.999460089
 299.999504435
 299.99946081
 299.999497008
 299.999744718
 299.99984979
 299.999829386
 299.999754417
 299.999499286
 299.999426938
 299.99964239
 299.999832053
 299.999825279
 299.999969895
 300.000120789
 300.000114839
 300.000164859
 300.000098393
 300.000195453
 300.000363447
 300.000037763
 299.999535921
 299.999271936
 299.999185642
 299.99922241
 299.999275474
 299.999077367
 299.99877127
 299.998588188
 299.998596093
 299.998702218
 299.99864306
 299.998535479
 299.998564931
 299.99882673
 299.999014998
 299.999068009
 299.999028974
 299.999010877
 299.999443705
 299.99988289
 299.999750554
 299.999394448
 299.999367353
 299.999593432
 299.999842621
 300.00003621
 300.000085036
 300.000087995
 300.000063975
 299.999953484
 299.999948424
 300.000031813
 300.000045842
 299.999949809
 299.999854134
 299.999934237
 299.999912082
 299.999758269
 299.999697892
 299.999622219
 299.999648387
 299.999755776
 299.999667567
 299.999630465
 299.9997104
 299.999742502
 299.999855957
 299.99989337
 299.999847173
 299.999802919
 299.999794675
 299.99987573
 300.000104181
 300.000428378
 300.000355375
 299.999980244
 299.999829115
 299.999961177
 300.000059986
 300.000091899
 300.000198258
 300.000213667
 300.000246347
 300.000157381
 300.000137081
 300.000335738
 300.000283229
 299.999997921
 299.999733809
 299.999594424
 299.999423533
 299.99925568
 299.999142389
 299.999119844
 299.999232996
 299.999416707
 299.99943321
 299.999363372
 299.999440939
 299.999521331
 299.999614993
 299.999688364
 299.999691796
 299.999755573
 299.999861483
 300.000058714
 300.000248834
 300.000293346
 300.000357293
 300.000433168
 300.000354217
 300.000184523
 299.999559151
 299.999591048
 299.999701942
 299.999728437
 299.999713754
 299.99991025
 300.000188667
 300.000200474
 300.000077437
 300.000123359
 300.000169231
 300.000056678
 299.999904264
 299.99987406
 299.999914115
 299.999987382
 299.999915958
 299.999820812
 299.99983877
 299.999864388
 299.999903642
 299.99988685
 299.999735527
 299.999595601
 299.999618937
 299.999718798
 299.999811638
 299.999897355
 300.000089611
 300.000069291
 299.999822595
 299.99993963
 300.000131363
 299.999840866
 299.999801317
 300.000613766
 300.000952671
 300.000005722
 299.999361717
 299.99933002
 299.999248845
 299.999219471
 299.999229618
 299.999310795
 299.999506546
 299.999791721
 299.999770687
 299.99960812
 299.999669861
 299.999699425
 299.999699131
 300.000017691
 300.000253983
 300.00018475
 300.000140259
 300.000084423
 300.000131297
 300.000213074
 300.000026565
 299.999848847
 299.999796881
 299.999787108
 299.999710493
 299.999402569
 299.999319496
 299.99949108
 299.999535603
 299.999600097
 299.99968875
 299.999539974
 299.999384398
 299.999477945
 299.99953382
 299.999588974
 299.99996743
 300.000132379
 299.999869227
 299.999690571
 299.999714606
 299.999806652
 299.999775031
 299.99965547
 299.999681536
 299.999917698
 300.000008079
 299.999909836
 299.999820791
 299.999775029
 299.999828422
 299.999805985
 299.999763829
 299.999846307
 299.999967223
 300.000154095
 300.000094792
 299.99998568
 299.999827361
 299.999645448
 299.999816082
 299.999817942
 299.999554779
 299.999466179
 299.999544099
 299.999597243
 299.999652576
 299.999712704
 299.999753898
 299.999764939
 299.999801852
 299.999860178
 299.999886361
 299.999909592
 299.99977618
 299.999697558
 299.999734931
 299.999715669
 299.999775202
 299.999904361
 299.999896143
 299.999797299
 299.999865432
 299.999874223
 299.999722007
 299.999710642
 299.999804571
 299.999614458
 299.999528287
 299.999751459
 299.999871178
 299.99979114
 299.999639289
 299.999690999
 299.999808029
 299.999683516
 299.999590713
 299.999646604
 299.999714194
 299.999691961
 299.999662363
 299.999723724
 299.999778559
 299.999827754
 299.999774642
 299.999707566
 299.999763566
 299.999769459
 299.999726175
 299.999848333
 299.999949876
 299.999857479
 299.999745316
 299.999683379
 299.999728864
 299.999804475
 299.999837595
 299.99983197
 299.999798627
 299.999730329
 299.999672275
 299.999769259
 299.999932503
 299.999985496
 299.999999521
 300.000040287
 300.000106657
 300.000064141
 299.999851289
 299.999631335
 299.999539333
 299.999570489
 299.99970546
 299.999733432
 299.999519313
 299.999364833
 299.999436397
 299.999457603
 299.999412162
 299.999160234
 299.998876858
 299.999003403
 299.999103739
 299.999206244
 299.999368367
 299.99930511
 299.999133044
 299.999148316
 299.999361389
 299.999531935
 299.999672805
 299.999830884
 299.999989659
 300.000108171
 300.000059364
 300.000042725
 300.000114645
 300.000148198
 300.000086052
 299.999860195
 299.999752778
 299.999850368
 299.99993373
 299.999937662
 299.999976917
 299.999936879
 299.999786172
 299.999719698
 299.999511537
 299.999307766
 299.999372304
 299.999495466
 299.999483611
 299.999522052
 299.999642426
 299.99947165
 299.999336371
 299.999450795
 299.999441014
 299.999404298
 299.999502107
 299.999685246
 299.999717391
 299.999770841
 299.999856021
 299.999921244
 300.000118446
 300.00010611
 300.000082786
 300.000262943
 300.000009439
 299.999520957
 299.999367445
 299.999313358
 299.999271971
 299.999386033
 299.999339696
 299.999104884
 299.999005505
 299.99902605
 299.999161404
 299.999121731
 299.998834513
 299.998679119
 299.998922875
 299.99926532
 299.99935941
 299.99926049
 299.999158072
 299.999260684
 299.999589276
 299.99981807
 299.999658347
 299.999476303
 299.999552748
 299.99967152
 299.999788336
 299.999904639
 300.000011828
 300.000045697
 299.999934961
 299.99993904
 300.000061624
 300.000097402
 300.000031132
 299.999973766
 300.000007867
 299.999929084
 299.999728678
 299.999575371
 299.999493685
 299.999578324
 299.999747728
 299.999741854
 299.999689305
 299.999617062
 299.999506722
 299.99967279
 299.999935775
 299.999981895
 299.99979097
 299.999641195
 299.999741146
 300.000111607
 300.000434487
 300.000416457
 300.000249402
 300.000105765
 300.000014455
 299.9999661
 300.000095539
 300.000341897
 300.000464494
 300.000533413
 300.000325384
 300.000090337
 300.000234043
 300.000241843
 300.000023287
 299.999809712
 299.999716225
 299.999529542
 299.999384625
 299.999226236
 299.999130906
 299.999365441
 299.999515807
 299.999462276
 299.999462416
 299.999573716
 299.999634605
 299.999734575
 299.999838892
 299.999789753
 299.999766529
 299.999877792
 300.000077279
 300.00020004
 300.000118724
 300.000106369
 300.000214242
 300.000200726
 300.000121242
 299.999673115
 299.999717007
 299.999879718
 299.999968251
 299.999963963
 300.000136905
 300.000341405
 300.000283547
 300.000130793
 300.000143633
 300.000359668
 300.000404247
 300.000174415
 300.000003058
 299.999981753
 300.000106527
 300.000090993
 299.999795461
 299.999567979
 299.999620581
 299.999695225
 299.999676894
 299.999598898
 299.999509114
 299.999460087
 299.999438276
 299.999523768
 299.999732243
 300.000028132
 300.000160933
 300.000114989
 300.000137612
 300.000230388
 300.000126341
 300.000152109
 300.000966998
 300.001349737
 300.000365721
 299.99960791
 299.999432133
 299.999307998
 299.999387419
 299.999449434
 299.999524739
 299.999683544
 299.999854585
 299.999842058
 299.99962743
 299.999565907
 299.999613955
 299.999671908
 300.000088304
 300.000153165
 299.999843206
 300.000042061
 300.000366517
 300.000344979
 299.999985164
 299.999554806
 299.999551806
 299.999703414
 299.999679875
 299.999673813
 299.999432222
 299.999209116
 299.999302549
 299.999402067
 299.999538616
 299.999693833
 299.9996487
 299.999592424
 299.999603315
 299.999490425
 299.999483062
 299.999783292
 299.99994939
 299.999780767
 299.99967517
 299.999730774
 299.999834364
 299.999892873
 299.999850548
 299.999920611
 299.999964033
 299.999924034
 299.999939487
 299.999931079
 299.999864383
 299.999823787
 299.999811756
 299.999847301
 299.999954336
 300.000109689
 300.000329494
 300.000207212
 299.999929006
 299.999880862
 299.999905276
 299.999938649
 299.999769935
 299.999401143
 299.999239831
 299.999357293
 299.999510196
 299.999652286
 299.999710448
 299.999662436
 299.999639635
 299.999668511
 299.99973578
 299.999794256
 299.999771966
 299.999746435
 299.999935086
 300.000157682
 300.000170289
 300.000128418
 300.000184998
 300.000154791
 300.000001803
 299.999873609
 299.999759163
 299.999940988
 300.000033159
 299.999972837
 299.999845491
 299.999857638
 300.000168458
 300.000285714
 300.000138979
 299.999828768
 299.999724996
 299.999770406
 299.999766988
 299.999820059
 299.999838934
 299.999839876
 299.999772432
 299.999708152
 299.99980344
 299.999868648
 299.999891911
 299.999815313
 299.999686644
 299.999692839
 299.999745883
 299.999809185
 299.999815922
 299.999792129
 299.999803415
 299.999704519
 299.999631302
 299.999711155
 299.999815931
 299.999909148
 299.999965758
 299.999940205
 299.999820041
 299.999755951
 299.999928151
 300.00020993
 300.00031248
 300.00025115
 300.000186084
 300.000270465
 300.000306403
 300.00007393
 299.999792892
 299.999631874
 299.999588821
 299.999687602
 299.999602509
 299.999035418
 299.998633632
 299.998797817
 299.998707286
 299.9987348
 299.99910457
 299.999288169
 299.999532485
 299.999469588
 299.999091191
 299.998807477
 299.998594481
 299.998643644
 299.999031857
 299.999382848
 299.999404152
 299.999480991
 299.999751097
 299.999849508
 299.999842491
 299.999863026
 300.000015808
 300.000111955
 300.000166228
 300.000196905
 300.000072224
 300.000052528
 300.000157989
 300.000150032
 299.999920062
 299.999854237
 300.000004651
 299.999839833
 299.999601783
 299.999474972
 299.999307528
 299.999336553
 299.999535321
 299.99959854
 299.999636772
 299.999521951
 299.99886999
 299.99850564
 299.998958072
 299.99936072
 299.999351685
 299.999165775
 299.999313893
 299.99948004
 299.999424816
 299.999506162
 299.999661793
 299.999885273
 299.999963259
 299.99991678
 300.000121772
 300.000039563
 299.999604374
 299.999478685
 299.999458758
 299.999413787
 299.999646786
 299.999759483
 299.999597786
 299.999663766
 299.999787509
 299.999675466
 299.99943621
 299.999169468
 299.998978396
 299.999149509
 299.999594526
 299.999650156
 299.999466153
 299.999367643
 299.999416344
 299.999568757
 299.99985266
 300.000039358
 299.999775416
 299.999632354
 299.999577264
 299.999575008
 299.999704251
 299.999910962
 300.00007026
 299.999982468
 299.999940183
 300.000073745
 300.000177664
 300.000113181
 300.000024196
 300.00004624
 300.000004193
 299.999813185
 299.999584518
 299.999475567
 299.999580276
 299.999754616
 299.999759419
 299.999684161
 299.99948334
 299.999359715
 299.999673851
 300.000068456
 300.000120666
 299.999885485
 299.999653703
 299.999710956
 300.000068013
 300.000338681
 300.000464742
 300.000500084
 300.000424705
 300.00021502
 300.00008845
 300.000300431
 300.000627412
 300.000729853
 300.00070453
 300.000549438
 300.000223136
 300.000132644
 300.000113622
 300.00003009
 299.999962153
 299.99991248
 299.999729071
 299.9995976
 299.999487783
 299.999364353
 299.999498788
 299.999529147
 299.999398868
 299.999426574
 299.999606845
 299.999720958
 299.999819121
 299.999879112
 299.999795273
 299.999733238
 299.999782576
 299.999873801
 299.999869113
 299.999742223
 299.999755568
 299.999847376
 299.999870606
 299.99991442
 299.999744345
 299.999742367
 299.999821199
 299.999931285
 300.000022204
 300.000156314
 300.000284474
 300.00024766
 300.000153344
 300.000162492
 300.000351424
 300.000526635
 300.000441066
 300.000211385
 300.000094123
 300.000143192
 299.999959872
 299.999640287
 299.999544286
 299.999558585
 299.999503116
 299.999512771
 299.999548009
 299.999498769
 299.999498276
 299.999521722
 299.999730525
 300.000048515
 300.000343146
 300.000636351
 300.000675022
 300.000342747
 300.000292701
 300.000567866
 300.000766463
 300.001020324
 300.000796011
 300.000134799
 299.999651895
 299.999503992
 299.999530894
 299.999527065
 299.99954391
 299.99964659
 299.999733256
 299.999701419
 299.999776825
 299.999749541
 299.999582897
 299.999611449
 299.999807469
 300.000170489
 300.00022274
 300.000042497
 300.000405583
 300.00089868
 300.000702186
 300.000015888
 299.999315842
 299.99941906
 299.999936668
 299.999862573
 299.999649016
 299.999326069
 299.999085938
 299.999201322
 299.999340567
 299.999545481
 299.999766177
 299.999785026
 299.999749302
 299.999719239
 299.999563821
 299.999522162
 299.999707041
 299.999768795
 299.999719645
 299.999726927
 299.999731765
 299.999805962
 299.99992791
 300.000025502
 300.000084867
 299.999925721
 299.999867226
 299.999985392
 299.999905889
 299.999784481
 299.99979038
 299.999853996
 299.999930709
 299.999966541
 299.999979678
 300.000033214
 299.999989024
 299.999844658
 299.999799716
 299.99980473
 299.999776222
 299.999643593
 299.999422044
 299.99938724
 299.999592013
 299.999748831
 299.999825513
 299.999889848
 299.999886101
 299.999805192
 299.999652996
 299.999612269
 299.999660246
 299.999659939
 299.999752687
 299.999966018
 300.000166023
 300.00022394
 300.000229734
 300.000342991
 300.000258525
 300.000013739
 299.999817505
 299.999884539
 300.000416252
 300.000465744
 300.000234082
 300.000276
 300.000312503
 300.000299287
 300.000307215
 300.000342503
 300.00012191
 299.999895705
 299.999759895
 299.999715285
 299.999890027
 299.999945574
 299.999842181
 299.999805434
 299.999816615
 299.999889408
 299.999889633
 299.999882846
 299.999888832
 299.99980873
 299.999739865
 299.999701834
 299.999752298
 299.999710255
 299.999581605
 299.999565114
 299.999537901
 299.999560087
 299.999698165
 299.999838487
 299.999934751
 299.999992071
 299.999970361
 299.999890487
 299.999891327
 300.000084493
 300.000308532
 300.000324339
 300.000195875
 300.00018111
 300.000381881
 300.000466569
 300.000292116
 299.999986917
 299.999704119
 299.99965966
 299.999610033
 299.999232744
 299.998480013
 299.9979866
 299.99823585
 299.998434184
 299.998633264
 299.999085177
 299.999344264
 299.999793019
 300.00000559
 299.999524815
 299.999125951
 299.998743085
 299.998596697
 299.99894911
 299.999169485
 299.998995103
 299.999147439
 299.99963918
 299.999725717
 299.999734135
 299.999896041
 300.00002069
 300.000036241
 300.000082233
 300.000164926
 300.000119864
 300.000148102
 300.000185377
 300.000138927
 299.999981724
 299.999741753
 299.999787356
 299.999778795
 299.999626443
 299.999469428
 299.999310076
 299.999391182
 299.999620071
 299.999705521
 299.999614297
 299.999307421
 299.998481433
 299.998086504
 299.998660432
 299.999152973
 299.999102298
 299.998654321
 299.998336115
 299.998486382
 299.998543203
 299.998699969
 299.99920082
 299.99958434
 299.999811917
 299.999899154
 300.000013492
 299.999991418
 299.999716702
 299.99960912
 299.999694856
 299.999822275
 300.000067801
 300.000175813
 300.00016984
 300.000200698
 300.000178634
 299.999791626
 299.999408188
 299.999337481
 299.999363438
 299.999446281
 299.99961535
 299.999740765
 299.999713469
 299.999616408
 299.999686697
 299.999810612
 299.999847299
 300.000101605
 300.000204831
 300.000090241
 299.999838856
 299.99960627
 299.999574722
 299.999788678
 300.000042133
 300.000028496
 299.999993115
 300.000079435
 300.000177657
 300.00007374
 299.999921579
 300.000026171
 300.000056578
 299.99978867
 299.999520004
 299.999477233
 299.999573147
 299.999662456
 299.999684233
 299.999655589
 299.999639003
 299.999669506
 299.99990459
 300.000128559
 300.000030322
 299.999920799
 299.999849411
 299.999843428
 299.99996163
 300.000182003
 300.000384802
 300.00037866
 300.000371676
 300.000400752
 300.00040599
 300.000470192
 300.000604108
 300.000588987
 300.000569316
 300.000565797
 300.000317309
 300.000104335
 300.000022599
 299.99997723
 299.999949597
 299.999932601
 299.999850987
 299.999696996
 299.999600902
 299.999540631
 299.99951436
 299.999544322
 299.999462806
 299.999340356
 299.999435691
 299.999630149
 299.999792499
 299.999765949
 299.999607502
 299.999516217
 299.999451242
 299.999349249
 299.999235601
 299.999257186
 299.999384802
 299.999468423
 299.999635746
 299.999808647
 299.999784647
 299.999821913
 299.999876649
 299.999970585
 300.000053942
 300.000078744
 300.000149761
 300.000145495
 300.000132295
 300.000233403
 300.00037848
 300.000506757
 300.00044626
 300.000261891
 300.000150572
 300.000152686
 299.999875802
 299.999579314
 299.999624047
 299.999608035
 299.999460865
 299.999461177
 299.999532418
 299.999631168
 299.999690003
 299.99962174
 299.99985835
 300.000231481
 300.000435665
 300.000565525
 300.000408316
 299.999978067
 299.999951439
 300.000244431
 300.000568885
 300.000821489
 300.000448093
 299.999818713
 299.99948461
 299.999509243
 299.99962009
 299.999554414
 299.999573746
 299.999653258
 299.999697519
 299.999759286
 299.999910409
 299.999983399
 299.999765653
 299.999611988
 299.99983608
 300.000223071
 300.000334163
 300.000194123
 300.000238288
 300.000492681
 300.000615428
 300.000368914
 299.999906764
 299.999914182
 300.000249258
 300.000217769
 299.999922661
 299.999457062
 299.999264188
 299.999458287
 299.999542973
 299.999637658
 299.999830865
 299.999849564
 299.999764762
 299.99969461
 299.999604118
 299.999644344
 299.999719744
 299.999709598
 299.999695849
 299.999722215
 299.999759983
 299.999890054
 300.000033073
 300.000057781
 300.000105558
 300.000069957
 299.99994726
 299.999889782
 299.999828727
 299.99984064
 299.999894968
 299.999888226
 299.99994018
 299.999949169
 299.999778682
 299.999735472
 299.999857587
 299.999758194
 299.999619954
 299.999610893
 299.999606364
 299.999635372
 299.999650457
 299.999750384
 299.999960449
 300.000076766
 300.000097718
 300.000154215
 300.000191446
 300.000098554
 299.99994429
 299.999852116
 299.999773674
 299.999696181
 299.999715112
 299.999799912
 299.999963025
 300.000116083
 300.000196658
 300.000345673
 300.000212389
 299.999824447
 299.999692218
 299.99994995
 300.000371615
 300.000393229
 300.000302798
 300.000342391
 300.00041351
 300.000400417
 300.000210396
 300.000175051
 300.000187425
 300.000057358
 299.999826239
 299.999669989
 299.999761917
 299.999901576
 299.999890626
 299.999806434
 299.999810232
 299.999949301
 299.999982064
 299.999965441
 299.999981783
 299.99998412
 299.999946377
 299.999800882
 299.999749349
 299.999678809
 299.999538921
 299.999543541
 299.9996173
 299.999715833
 299.999881036
 300.0000368
 300.000079068
 300.000093698
 300.000021349
 299.999923388
 300.000020316
 300.000257426
 300.000386798
 300.000253022
 300.00011845
 300.000221323
 300.000434337
 300.000452681
 300.000296535
 300.000023947
 299.999779101
 299.999843749
 299.999456079
 299.998637244
 299.998051283
 299.997898316
 299.998342176
 299.998813351
 299.998872045
 299.998944698
 299.999096629
 299.999608288
 300.00011602
 299.999928365
 299.999629593
 299.999215613
 299.998815894
 299.998712586
 299.99869567
 299.99866838
 299.999029729
 299.999495388
 299.999607909
 299.999742242
 299.999783394
 299.999781451
 299.999976912
 300.000123116
 300.000148219
 300.000022459
 299.999973333
 299.999979649
 299.999921686
 299.999839404
 299.999634077
 299.999551971
 299.999588699
 299.999574461
 299.999386942
 299.999246157
 299.999340907
 299.999516895
 299.999598831
 299.999461742
 299.999197153
 299.998687062
 299.998379365
 299.998537378
 299.99857715
 299.998404637
 299.998201861
 299.997719803
 299.997587798
 299.99757294
 299.997591898
 299.998285678
 299.999044531
 299.999622993
 299.999864969
 299.999859085
 299.999758235
 299.999617236
 299.999686519
 299.999948051
 300.000178953
 300.000343388
 300.000454883
 300.000548253
 300.000399778
 300.00016129
 300.000060629
 299.999900035
 299.999671635
 299.999594083
 299.999537282
 299.999466916
 299.999753597
 299.999884737
 299.999731218
 299.99950572
 299.999512374
 299.999668495
 299.999802152
 300.000058167
 300.0001335
 300.000010671
 299.999737612
 299.999580559
 299.999738281
 299.999982682
 300.000050616
 300.00005326
 300.000126439
 300.000169943
 299.999983792
 299.999871601
 300.000063981
 300.000018055
 299.999627613
 299.999352248
 299.999369992
 299.999481066
 299.999615781
 299.999757091
 299.999672252
 299.99971209
 299.999875154
 299.999984185
 300.000073481
 299.999978848
 299.999860071
 299.999836765
 299.999843944
 299.999877525
 300.000052516
 300.000201374
 300.000175318
 300.000114896
 300.000199125
 300.000335274
 300.000386763
 300.00040137
 300.000418321
 300.000548702
 300.000527538
 300.000307328
 300.000164189
 300.000026532
 299.999896781
 299.999821103
 299.999815856
 299.999764353
 299.999607018
 299.999503451
 299.999503184
 299.999560662
 299.999707732
 299.999732012
 299.99950968
 299.999386047
 299.99951267
 299.999730394
 299.999754543
 299.999594018
 299.999492216
 299.999471816
 299.999373672
 299.999255563
 299.999301333
 299.999396275
 299.999515325
 299.999660855
 299.999803084
 299.999833279
 299.999906789
 299.999992134
 300.000074764
 300.000085448
 300.000047088
 300.000084806
 300.000071968
 300.000048703
 300.000177997
 300.000298784
 300.000274997
 300.000098888
 299.999993029
 299.999974922
 299.999989268
 299.999871431
 299.99963831
 299.999587595
 299.999512499
 299.999432439
 299.999535751
 299.999569426
 299.999527012
 299.999590953
 299.999691068
 299.999830954
 300.000022597
 300.000031293
 299.999935122
 299.999805657
 299.999751924
 299.999902766
 300.00018426
 300.000562457
 300.000623954
 300.00018628
 299.999781484
 299.999778039
 299.999902896
 299.999818309
 299.999600131
 299.999542447
 299.999554659
 299.999598594
 299.999754435
 299.999998381
 300.000134629
 299.999993712
 299.999764363
 299.999761987
 299.999961615
 300.000078917
 300.000101326
 300.000099872
 300.000240048
 300.000539984
 300.000551837
 300.0003347
 300.0000681
 300.000018708
 300.000306822
 300.000215278
 299.999733271
 299.99964102
 299.999859722
 299.999780696
 299.999672316
 299.999840722
 299.999892272
 299.999780032
 299.999698323
 299.999664575
 299.999739397
 299.999822979
 299.999837044
 299.999749565
 299.999765861
 299.999907247
 300.000022584
 300.000113946
 300.00007272
 300.000079634
 300.000107355
 299.999926943
 299.999767731
 299.999787214
 299.999851973
 299.999830123
 299.999788942
 299.999899817
 299.999925916
 299.999738575
 299.999797311
 300.000027829
 299.999932735
 299.99977067
 299.999615193
 299.999491184
 299.999661671
 299.999846132
 300.000000433
 300.000164957
 300.000203111
 300.000199863
 300.000251914
 300.000271942
 300.000185765
 300.000107647
 300.000065089
 299.999983968
 299.999944035
 299.999951699
 299.999918805
 299.999964466
 300.000102564
 300.000240262
 300.000414249
 300.000292301
 299.999912908
 299.999827722
 300.000081909
 300.000375888
 300.000402445
 300.000413202
 300.000459815
 300.000465676
 300.000578939
 300.000506078
 300.000292956
 300.000213458
 300.000106012
 299.999900316
 299.9997064
 299.999676783
 299.999909203
 300.000058027
 299.999899672
 299.999852192
 300.000012286
 300.000042858
 300.000034619
 300.000011229
 299.999975755
 299.999959172
 299.999861986
 299.999805379
 299.999740143
 299.999699734
 299.999772567
 299.999895794
 300.000086138
 300.000303709
 300.000359068
 300.000259198
 300.000225286
 300.000161884
 300.000034048
 300.000071608
 300.000246159
 300.000326873
 300.000238216
 300.000190749
 300.000272925
 300.000359235
 300.000292505
 300.00012118
 299.999984059
 299.999952787
 299.999958725
 299.999257945
 299.998190541
 299.997853497
 299.998239211
 299.998814365
 299.999269409
 299.999360624
 299.99943146
 299.999422553
 299.999509732
 299.999961458
 300.000144257
 299.999993188
 299.99972025
 299.999346278
 299.998919426
 299.998785706
 299.998995837
 299.999317515
 299.999494145
 299.999690128
 300.000000095
 299.99998733
 299.999865867
 299.999992847
 300.00013605
 300.000255541
 300.000161663
 299.999957003
 299.999853099
 299.999770708
 299.999658632
 299.999492576
 299.999363036
 299.999341119
 299.999283461
 299.999095008
 299.9990346
 299.999123815
 299.999217158
 299.999227289
 299.999176747
 299.999166244
 299.999022606
 299.998692222
 299.998490301
 299.998496949
 299.998455976
 299.998571349
 299.99859965
 299.998305929
 299.997876658
 299.997456617
 299.997546208
 299.998058332
 299.99879286
 299.999295423
 299.999410785
 299.99942826
 299.999402882
 299.999559053
 299.999909419
 300.000182717
 300.000244465
 300.000237909
 300.000293278
 300.000286652
 300.000091574
 300.000074686
 300.000065873
 299.999853488
 299.999680418
 299.999504497
 299.999351191
 299.99942872
 299.999475138
 299.99948847
 299.999334593
 299.999213947
 299.999453157
 299.999553633
 299.999584889
 299.999727348
 299.999944312
 299.99993745
 299.999775639
 299.999795035
 299.999945948
 300.000026107
 300.000030032
 300.000070469
 300.000073148
 299.999941491
 299.999883393
 299.99997226
 299.999827043
 299.999514076
 299.999359995
 299.999384196
 299.999498522
 299.999684958
 299.999825839
 299.999711785
 299.999724404
 299.999944421
 300.000070093
 300.000176683
 300.000216116
 300.000081902
 299.999972782
 299.999948196
 299.999914164
 299.999957158
 300.00001759
 299.999990798
 299.999867499
 299.999852371
 300.000002324
 300.000156128
 300.000206749
 300.000264671
 300.000398132
 300.000457775
 300.000467439
 300.000379067
 300.000147555
 299.999967224
 299.999857159
 299.999766806
 299.999728737
 299.999628192
 299.999544078
 299.999534282
 299.999524761
 299.999659653
 299.999828487
 299.999708476
 299.999454022
 299.999392182
 299.99949611
 299.999626528
 299.999648548
 299.999641899
 299.999754301
 299.999814328
 299.999852946
 299.999919698
 299.999933902
 300.000061303
 300.000128155
 300.000065953
 300.000008034
 300.000075431
 300.000095636
 300.000142845
 300.000115426
 300.000095964
 300.000094349
 300.000048309
 300.000051906
 300.000061007
 300.00000508
 299.999964131
 299.999873747
 299.999825516
 299.99982106
 299.999795504
 299.999722315
 299.999575993
 299.999508673
 299.999426398
 299.999416267
 299.999650351
 299.999665767
 299.999472922
 299.999494619
 299.99964788
 299.999678005
 299.999714304
 299.999760602
 299.999706326
 299.999721572
 299.99998232
 300.00026845
 300.000352184
 300.000483916
 300.00055419
 300.000394819
 300.000110181
 300.000218308
 300.000525477
 300.000341609
 299.999917628
 299.999567149
 299.999369211
 299.999488849
 299.999677098
 299.999806221
 299.999984475
 300.000066693
 300.000039774
 299.999918808
 299.999821062
 299.999877008
 300.000088792
 300.000283997
 300.000419234
 300.000579512
 300.0005868
 300.000393225
 300.000085108
 300.000124272
 300.000502436
 300.000342866
 299.99986471
 299.999799081
 300.00003543
 300.000029773
 299.99985814
 299.999852012
 299.999878398
 299.999824262
 299.999761126
 299.999793301
 299.999851414
 299.999944173
 300.000009664