# vtk DataFile Version 3.0
array.1
ASCII
DATASET STRUCTURED_POINTS
DIMENSIONS 1 321 161
ORIGIN 1500.01 799.99 0.001
SPACING 0 1.25 1.25
POINT_DATA 51681
 FIELD attributes 1
U 3 51681 float
3.65153048706 	0.232598275548 	4.30628966502e-05
 3.58105264234 	0.205044261384 	-0.000107862197322
 3.46697086417 	0.0244609694132 	-4.46734862608e-05
 3.31339893277 	-0.186993193613 	8.1759864521e-05
 3.40758257233 	-0.421840002318 	0.000130761170173
 3.78783394963 	-0.575989095147 	-8.29754824136e-05
 4.06536876627 	-0.62020283268 	-4.87028232821e-05
 4.07137008804 	-0.487473926429 	0.00019593047148
 4.11926172074 	-0.181067158171 	0.000119153892088
 4.19277956943 	0.223845341989 	-0.000155061926052
 3.74320061161 	0.614831489874 	-0.000249899871696
 3.43398571599 	0.779361594783 	-0.000145942576204
 3.46059888025 	0.609865653953 	-0.000167744370601
 3.57132608527 	0.395210887994 	0.000102424195467
 3.64820898755 	0.092133901755 	0.000102012532716
 3.31448739042 	-0.299145165531 	-0.00013478342549
 3.53406125489 	-0.31212203342 	-0.000204268355407
 3.96041340665 	0.161076577196 	0.000182697818472
 3.76131360747 	0.397712258916 	-7.05060597423e-05
 3.84597800832 	0.137314678496 	-0.000252367762613
 4.1500908123 	0.282648053352 	-0.000336631619011
 3.74703541499 	0.483888316826 	-8.17642289271e-05
 3.26567642213 	0.0460055626445 	7.85516714405e-05
 3.41891834679 	-0.314677257039 	-2.41132047337e-05
 3.70210734731 	-0.297321952006 	-8.22463954468e-05
 3.72325839897 	-0.0605211264401 	-0.000353322969268
 3.89416136603 	0.0072072066964 	-0.00033972572092
 4.51950607717 	0.108180859523 	0.000233520122719
 4.78309339883 	0.531517539223 	3.00491919147e-05
 4.59354496063 	0.721320490048 	3.51385950531e-05
 4.56933604926 	0.593575888391 	0.000181490894223
 4.52629859226 	0.545323300729 	-0.000559778289598
 3.66804503189 	0.411384914881 	-0.000317920233943
 2.60325739382 	0.447329451978 	0.000161677002401
 2.36776684613 	0.541390153352 	0.000420275826112
 2.4992605403 	0.480524537368 	0.000303384359238
 2.53834415759 	0.48108227973 	-0.000152817284624
 2.51975548327 	0.17054515053 	-0.000211160837041
 2.63219884769 	-0.25936060195 	0.000246561402974
 3.08898270806 	-0.468014070981 	0.000299318183557
 3.33907897011 	-0.334762655506 	-3.04548053333e-05
 3.14247983574 	0.0917892306519 	-0.000311720623097
 3.11644149245 	0.464642582336 	-0.000115856869669
 2.97250179789 	0.635369437361 	-0.000448093578948
 2.37977071674 	1.01337455925 	-0.000373501054728
 2.04582741812 	1.34433263226 	-0.000279634847504
 2.24291238706 	1.17379867137 	3.467793884e-05
 2.20200380811 	1.0331855795 	0.000185391640055
 1.91854406544 	0.796633569095 	0.000194485418837
 2.6108237542 	0.638124506482 	0.000104812028365
 2.95020684868 	0.772762420544 	-7.17958708519e-05
 2.13409285634 	0.523467899052 	4.02520584516e-05
 2.20938073664 	0.296993187141 	0.000355416056686
 2.11514695121 	0.483839999675 	-0.000120820756739
 2.17817115411 	0.506156868114 	-0.000192115129417
 2.95993920065 	0.604020657799 	4.36398223424e-05
 3.19749935851 	0.916399516087 	-2.18337721416e-05
 3.86210025085 	0.96044921877 	3.13912153808e-05
 3.78205611536 	0.737090033471 	1.53289276753e-05
 2.77881451497 	0.871712119008 	-8.76878346059e-05
 2.78198604117 	0.749072369111 	-0.0004768357178
 3.73362848388 	0.144349227727 	0.000177610820638
 4.70473800883 	0.0151462161832 	0.000405721431326
 5.0464225777 	-0.044240221902 	-9.78066811874e-06
 4.68628570748 	0.257546435248 	6.6108673904e-05
 4.14300179957 	0.467031033684 	-0.000198575070283
 4.08604343811 	0.17689558706 	2.08373493533e-06
 4.35717132181 	-0.211092230786 	0.00030801457134
 4.00796329453 	-0.320082778731 	0.000269788444297
 3.36548936555 	-0.228160680246 	0.000328859911383
 3.61335393416 	-0.22781694451 	0.000167437760321
 3.39441579452 	0.215296854834 	2.24230946817e-05
 2.45056349644 	0.294507362617 	0.00033010377242
 2.46582144594 	-0.107578267126 	0.000143461184061
 3.53081360202 	-0.363034002707 	-7.56235434226e-05
 4.71049242632 	-0.064051296902 	-4.38513021628e-05
 4.71099158868 	0.136354305667 	-0.000976435294114
 3.8797190497 	-0.0957631833683 	-0.000744285365267
 3.50366141216 	0.102805976322 	-5.41314439397e-05
 3.58627934663 	0.485870043275 	1.22046300167e-05
 3.59425846157 	0.581958390253 	-0.000201859983396
 3.68361617434 	0.343506130145 	2.5209864719e-05
 3.97932342058 	0.462575419295 	-0.000383330430963
 4.03431785764 	0.898485417523 	-0.000480690649511
 3.73837137519 	0.76168692202 	0.000103346736193
 3.60229403731 	0.171723967168 	0.000533313707844
 3.61374147549 	-0.116250809551 	0.000104965677889
 3.46173872667 	-0.282943574536 	4.41994999227e-05
 3.85631191507 	-0.338154976405 	-0.000198828185675
 4.1256976011 	-0.0391283140397 	-0.000850837398776
 3.80643614492 	0.147496863809 	0.000138265615718
 3.54402727498 	0.50774421981 	0.00020490541149
 3.10411551895 	0.665813969396 	-0.000389118591648
 3.25993539034 	0.0190030295147 	-0.000251414078078
 3.85413377569 	0.0927654744147 	3.38817089318e-05
 4.33431309489 	0.211543607507 	2.56171363278e-05
 4.65508755695 	0.228982352731 	-0.000893195927234
 3.97073993449 	0.753735368706 	0.000203149331702
 3.4995088494 	0.707831132734 	0.000260520088345
 3.69554751434 	0.253078852402 	-0.000132296559052
 3.46867386255 	-0.0263140179216 	-0.000226377804332
 3.06705012238 	-0.0772223329994 	-0.000190806282063
 2.96368303078 	-0.124384104555 	-9.07017371188e-05
 3.28088522929 	-0.00762526208615 	-9.83216250452e-05
 3.39835020381 	-0.0472128930222 	-0.000284692177692
 3.17999868021 	-0.378292961931 	-6.51160104606e-05
 3.16492662573 	-0.516819694093 	0.000149888035899
 3.45289935428 	-0.22702010692 	-9.07765844878e-05
 3.52883104192 	-0.132518672307 	-0.000306215429494
 3.41677210999 	-0.315204771771 	-0.000160169656973
 3.51156402618 	-0.304696935394 	-0.00023975504747
 3.15338558714 	-0.205953109768 	-0.000370189969474
 2.62215432505 	-0.1032850882 	6.90895314924e-05
 2.80292470208 	-0.00773134386156 	0.000333965712134
 3.16224401784 	0.01156101178 	-0.000121169594552
 3.22435902048 	-0.0669816540258 	-0.000129917059885
 3.1042368926 	-0.073487141552 	-0.00022829249508
 3.3352449492 	-0.106529869115 	2.55294314284e-05
 3.7543226214 	-0.179241395208 	-0.00055631029073
 3.23244909253 	0.0830088308049 	-0.000692192458137
 2.43875993495 	0.25146790999 	-6.1617798521e-05
 2.27634063669 	0.206513172448 	0.00034191770193
 2.72943669784 	0.227430324227 	0.00014141911486
 3.26938654905 	0.192851801053 	-0.00063741596815
 3.07058155249 	0.371911524735 	-0.000682840521544
 2.96024121473 	0.372264138478 	8.5280691806e-05
 3.60045030508 	0.408004947294 	-0.000521023450904
 3.67605665381 	0.515786198762 	-0.00018863353824
 3.05277773461 	0.088077349441 	2.00346421478e-05
 2.96843703587 	-0.289721706454 	0.000203992612803
 2.90412165058 	-0.304212382601 	-0.000196502592336
 2.77080108368 	-0.484492152218 	0.00010339560132
 3.43172986806 	-0.483750470924 	1.20031201931e-05
 3.86461907557 	0.15639146204 	-0.000425565012066
 3.49405528449 	0.627171852597 	7.96306306544e-05
 3.27326715929 	0.634132117478 	0.000234135812611
 3.31043822753 	0.447886148256 	0.000237106817987
 3.28363730172 	0.415350227553 	-2.77338498117e-05
 2.92846170302 	0.416589940781 	-0.00030247179763
 2.77691943372 	0.51064308381 	-0.00015814629716
 2.93598167985 	0.603182924413 	-0.000336115164844
 3.01076373506 	0.347969178085 	-0.000170158663013
 2.81958876793 	0.299191425072 	9.84401972398e-05
 2.47124764006 	0.271284448984 	5.36003305497e-05
 2.11960845748 	0.230173772212 	0.000169936182435
 1.89133820294 	0.120043501802 	0.00011431356889
 2.4240990305 	0.172845774363 	5.12113275787e-05
 3.13036040019 	0.291538846378 	-0.000264403728444
 3.56771138885 	0.126083432555 	-0.000105253639837
 3.52148766538 	0.090255231371 	-0.000279943873635
 2.58546959421 	0.128061300722 	-0.000445855274346
 2.01687047477 	0.0942635610289 	-3.48397772235e-05
 2.43351388842 	0.102281871408 	6.52340936349e-05
 2.83475845375 	0.0559171641992 	-4.33324233976e-05
 2.99343231579 	0.119046209028 	-0.000173479345646
 3.00100951837 	0.0677533328318 	-0.000161018661881
 3.35276691212 	-0.0686965075584 	-0.000253720911136
 3.6382335404 	-0.0750757194585 	-0.000374517658184
 3.29746562949 	-0.0913679049816 	-0.00013737044851
 3.00101089713 	-0.0119877245394 	-5.62428188456e-05
 2.95924165479 	-0.109117693318 	-3.02338103027e-05
 3.09431911464 	-0.131830501313 	-0.000147985003323
 3.42945619543 	0.174728660295 	-9.76180179998e-05
 3.27928858735 	0.562898694656 	-0.000108898934421
 3.39615783321 	0.873654079277 	0.000292068431762
 3.79256329621 	1.06767398224 	-0.000136473007736
 3.24133834475 	1.01643103923 	-3.83300262137e-05
 2.86617063209 	0.94839543594 	0.00023182512721
 2.91070672726 	0.493961630006 	0.000374603934865
 2.7876052457 	-0.154351349787 	0.000242941215747
 2.59936860039 	-0.350408751415 	-0.000149898429618
 2.23361456249 	-0.344841995541 	-0.0002032199663
 1.82540593555 	-0.383836133168 	-0.000237557993779
 2.38969412338 	-0.129328154248 	1.90277411929e-05
 3.15795260431 	0.333127524049 	-5.02494224005e-05
 2.70413672659 	0.134731183632 	-0.000144833340463
 2.00441060056 	-0.258840535557 	-9.67268580209e-06
 2.51541116827 	-0.328999650263 	-2.2936605978e-05
 4.25079418678 	-0.0886236555135 	0.000429892388249
 4.65403250251 	0.27033151467 	6.31999929882e-05
 3.38482270082 	0.467526594263 	0.000263379730172
 2.64162578007 	0.671822975546 	0.000298450043973
 2.31249351095 	0.414333409739 	2.40064472707e-05
 2.67087923414 	0.31659252589 	-0.000154707691605
 3.29028638997 	0.302218085986 	-0.000626869877823
 3.51473032107 	0.316112621214 	-0.00025636108864
 3.80850623544 	0.456191900119 	2.86086126617e-06
 3.83829335907 	0.568671918092 	-0.000135547154194
 3.4672164899 	0.644196423037 	-8.10818638317e-05
 3.06656107449 	0.175088209387 	0.000204413077275
 2.89928208573 	-0.132602620487 	7.18847955352e-05
 3.78786376699 	0.0918980094222 	-7.83530039001e-05
 3.65524558784 	0.669955396571 	-0.000485106793153
 2.37586468679 	0.749024156128 	0.000740497233121
 2.51032974087 	0.376655116142 	0.000223348603878
 3.05497397018 	0.190745108068 	-8.92124120246e-05
 3.16180377273 	-0.000565856573261 	0.000262276991878
 2.85183900976 	-0.0086508391777 	-5.15736601214e-05
 2.70163661504 	-0.330949479295 	2.68056161139e-05
 3.1289590542 	-0.514829154508 	-0.000145681976702
 3.7040929565 	0.00661665050199 	5.15263262216e-05
 3.98393587878 	0.319310570959 	-0.000742214262195
 3.73351666815 	0.334407460941 	-0.000714610096587
 3.31753295613 	0.268633801099 	-7.04767912406e-05
 3.28570033151 	0.0807176543116 	0.000280097588979
 2.97893459367 	0.026899954329 	-8.95548976996e-05
 2.91612291547 	0.217683230002 	-0.000174310439725
 3.13420825611 	0.126855829148 	-1.89025763388e-05
 2.85987138534 	-0.187961434391 	0.000151616013482
 2.97214333062 	-0.148991783341 	-7.06421030825e-05
 3.29075317262 	-0.142540775734 	-0.000160021977231
 3.55973216333 	-0.566869706092 	0.000209578058758
 3.71141897029 	-0.769700031097 	-0.000583597381488
 3.19216214442 	-0.574141991403 	-0.000439730598716
 2.3124310937 	-0.287189819542 	-0.000165208341054
 2.2707164138 	-0.278458428788 	-6.62582769866e-05
 3.35296252871 	-0.211864933762 	-0.000174225304934
 3.75821543651 	-0.207812722762 	-3.33337783764e-05
 3.39439558281 	-0.402166819088 	-3.33954738429e-05
 2.80814509476 	-0.208944843969 	-0.00050270195924
 3.25044041672 	-0.156029930743 	-9.26275989645e-06
 4.19645321087 	-0.437776247182 	0.000691077755343
 4.10869537324 	-0.211393709052 	0.000253316498595
 4.10746699832 	0.307887192529 	-0.000267839124775
 4.15400903934 	0.462026067872 	-0.000422326390766
 4.33902934256 	0.389966414343 	-0.000217054958657
 4.80036966703 	0.386147455325 	-0.000359685341801
 4.39922306713 	0.49076193464 	-0.000319893053741
 3.95046547904 	0.580904634815 	0.000139399596927
 4.41648387095 	0.424660582421 	0.00038848317866
 3.89489712072 	0.746909431303 	-7.05693168916e-05
 2.49952538612 	0.792008195015 	9.97169469859e-05
 1.94098776744 	0.460612019018 	0.000193469047024
 2.06100095819 	0.628486554873 	-0.00040624070422
 2.63624894105 	0.577577241238 	0.000169721019416
 3.47536897329 	0.572065851047 	0.000337163729563
 3.74976940225 	0.595675522341 	0.000199589849334
 3.64241898968 	0.596372969867 	0.000249841638722
 3.51887796025 	0.64264300278 	1.55478376711e-05
 3.56185493638 	0.789896538598 	-0.000115977348003
 3.70770570177 	0.964492632539 	-9.79449943486e-05
 3.20926156089 	0.871909138847 	6.47604155755e-05
 2.78382546906 	0.473635128691 	0.00022935491175
 2.60010785886 	-0.182832176695 	0.000442432737548
 2.65342065075 	-0.493695051565 	0.000352652910389
 3.22823622297 	-0.0313290451463 	6.72707442754e-05
 3.27236865831 	0.261510496109 	-0.000584758684052
 2.89230668799 	0.121505390027 	-0.000557673045567
 2.54622620726 	0.0221962223322 	-0.00040797324979
 2.73598596571 	0.186392813734 	0.000122062176206
 3.12589007143 	0.547797536484 	-0.000198307824342
 3.03527695675 	0.873748655523 	-0.000336624489848
 2.79826169815 	0.825506540089 	0.000188453003803
 2.58345097159 	0.404776443452 	0.00030085463683
 2.62080068233 	0.133168313262 	-0.000148355876147
 2.93104272283 	0.238755262786 	-0.000242959784363
 3.30043676942 	0.321255098555 	-0.000104793157783
 3.45207146133 	0.0914245756606 	-9.53136324257e-06
 2.86805578969 	0.194258429066 	0.000202539211404
 2.24926765532 	0.213755414705 	0.000141529613262
 2.48716803878 	0.117655478701 	0.000150038747097
 2.76579718552 	0.266577591616 	2.03905825996e-06
 2.8590181745 	0.0202522989556 	6.42727296081e-05
 3.07736428988 	-0.464113364561 	0.000226625621993
 3.28807215212 	-0.609793039478 	-4.33284516031e-05
 3.96918226629 	-0.189285277385 	-0.000127959620668
 4.16630017917 	-0.0407912852866 	-0.000397585508392
 4.03161289125 	-0.140808373605 	-0.000197527580168
 4.40664520505 	-0.0430846798409 	-0.000344224541653
 4.18508107962 	0.373138670669 	-0.000167107654438
 3.47621922849 	0.660336126996 	0.000150440097105
 3.03331112149 	0.0993317174342 	0.000667359885264
 2.84496954744 	-0.301504879492 	-0.000165911600495
 2.85694676131 	-0.293666062516 	-0.000130033630079
 3.25046136709 	-0.021912598079 	3.02406374381e-05
 2.90028116866 	0.583023078412 	9.68939686175e-05
 2.48199637784 	0.549396443965 	-6.62416938749e-05
 2.71466769459 	0.330815417116 	-0.00038042887156
 2.7965040502 	0.245888610762 	-0.00031698423052
 3.11503004623 	-0.0739924029694 	0.000126647298477
 3.68754045382 	-0.798957136832 	0.000257526143693
 4.71210421556 	-1.01739671288 	0.00055677191207
 5.0111618172 	-0.674869381106 	-0.000362199529417
 3.6739119131 	-0.289632025185 	-0.000387109071447
 3.12686333722 	0.230936241182 	-9.59383026512e-07
 3.55715458022 	0.475135354513 	-0.000431218365807
 3.68338894167 	0.357743191258 	-0.000506645245137
 3.85615814624 	-0.0107011877473 	0.000288003151391
 4.206670993 	-0.298319779542 	9.25635776601e-05
 4.49675529919 	-0.520012005582 	-0.00031601829057
 3.7960968474 	-0.473304790086 	-0.000540767931275
 2.72887201905 	-0.407704569384 	-0.000601272047047
 2.74989774275 	0.125826621526 	-0.000153934942057
 3.50468545091 	0.789757022422 	-0.000233421360508
 4.2193693039 	0.932398278153 	-7.07582578225e-05
 4.09661320461 	0.773136324619 	7.95033821431e-05
 3.32338627544 	0.292965962669 	0.000177448818994
 3.07897152187 	-0.061357219061 	0.000251056809911
 3.28099111106 	-0.473619810996 	-0.000228350034342
 3.66526446941 	-0.625253786785 	-9.3448729893e-05
 4.37059835102 	-0.521250770731 	0.00019214560512
 4.6287558305 	-0.0909848007786 	-0.000226229796922
 4.21869825004 	0.733473077287 	-0.00036245377339
 3.65351298303 	1.04788312099 	-0.000176003719089
 3.23520595121 	0.779268521909 	-0.000193880107599
 3.21598871152 	0.410692849148 	-0.000297929783535
 3.38509938908 	0.501132265289 	-0.000189446341111
 3.51781593309 	0.658789981215 	-0.000124297137625
 3.53937933332 	0.723732581071 	-0.000177214147254
 3.50484304547 	0.708498322246 	-9.88256056496e-05
 3.40098075793 	0.490627159409 	-5.48461336288e-06
 3.52186256243 	0.375376187879 	-5.31970764662e-05
 4.0821954844 	0.513067631426 	7.81429308944e-05
 4.5432947196 	0.523160760046 	-1.76465415927e-05
 4.4851217504 	0.384958826194 	-4.46406888145e-05
 3.91697148653 	0.280968007345 	-0.000166606041011
 3.79609899851 	-0.0506867647902 	0.000160478501128
 4.34178419047 	-0.219023304499 	0.000228438254744
 4.59514720181 	-0.122739839003 	-0.000415019026786
 4.52333291858 	-0.0477523082803 	-0.000512969769478
 4.3755358103 	-0.247238418796 	-0.000559266867729
 4.49648957511 	0.201892785026 	0.0391661250956
 4.63815215071 	0.170208119634 	0.0561647516098
 4.72054348287 	0.067822468478 	0.0929013366709
 4.64688738591 	-0.0105763064758 	0.105331443777
 4.56772815662 	-0.0580234705615 	0.0830546388059
 4.85395132253 	-0.16693032354 	0.0769675200966
 5.21485634861 	-0.243778450394 	0.0588202439542
 5.25609593943 	-0.147227288525 	-0.0311192276172
 5.15652680377 	0.057856258085 	-0.187255421887
 5.25582256092 	0.30079859867 	-0.263256542293
 5.40305555059 	0.4307113497 	-0.148181763117
 5.06556621962 	0.502627345254 	0.00155576841525
 4.52376645558 	0.449676071488 	0.0922112666199
 4.55683053651 	0.304802933382 	0.135644118688
 4.9266053511 	0.165899855007 	0.150519912915
 5.08393960506 	-0.00490541248544 	0.121697025964
 5.42305459696 	-0.0582099247461 	0.0657175809587
 5.78444419413 	0.0513368275016 	0.0149100331364
 5.75945171334 	0.168364431872 	-0.02990926593
 5.63166635718 	0.136527624795 	-0.0272470393848
 5.3144824606 	0.180078362009 	0.0378305345415
 4.82566106168 	0.286596078465 	0.134622880723
 4.68994828171 	0.124843592822 	0.148252466041
 5.09600033543 	-0.0113557801497 	0.00559324874455
 5.54982474152 	0.0567909032318 	-0.153008645259
 5.56901087229 	0.253337254902 	-0.144183898394
 5.3263714755 	0.364633882134 	-0.00450206119014
 5.26090983657 	0.371677647887 	0.00494039191058
 5.30631427123 	0.39746027593 	-0.0476683584496
 5.35766422116 	0.384754684777 	-0.0487828333554
 5.38971189028 	0.24033947906 	-0.158528328753
 5.13255018893 	0.222817708042 	-0.198843244304
 5.25145133397 	0.514046726331 	-0.0932804611547
 5.46382901654 	0.79625574122 	0.00999641970456
 5.13030356096 	1.02578150395 	0.0656685782215
 5.20301349863 	1.19446501893 	-0.0168646004392
 5.18391351531 	1.22817706945 	-0.0471969166058
 4.49712332679 	1.11878036815 	0.0848632520355
 3.80738635298 	0.854896827645 	0.231471841031
 3.68699239141 	0.635388637615 	0.176205852678
 3.96716295878 	0.53979041728 	-0.0226526251822
 4.31137184058 	0.614332493097 	-0.125904986219
 4.48601347101 	0.848450451299 	-0.138661918413
 4.13760899766 	0.750164389608 	-0.095402733982
 3.7806372129 	0.365867572402 	-0.0648395101981
 3.79761442027 	0.174348794587 	0.047510298147
 4.04662549704 	0.205138974376 	0.19797474297
 4.32080894666 	0.303955932468 	0.227611780137
 4.25473776725 	0.347503514136 	0.155477220741
 4.21673556772 	0.396124465544 	0.087164116541
 4.17005302472 	0.700139651319 	0.14332616907
 3.78275225252 	0.940207823193 	0.31980370103
 3.98289140929 	0.82693013927 	0.356868650865
 4.54337769511 	0.624134236381 	0.198287336965
 5.02172200336 	0.72349263713 	0.155692604513
 5.21155533582 	0.911890860742 	0.151538788037
 4.73368080901 	0.868230891303 	0.0959712112339
 4.32550966628 	0.702969112559 	0.101756994432
 3.72752929784 	0.51896537174 	0.0756146750412
 3.19854259116 	0.594183711236 	0.0190683537808
 3.31042042801 	0.441343562269 	0.17725974483
 3.83032326371 	0.154081438037 	0.285179249145
 4.40317945243 	0.150790584161 	0.111959991263
 4.80729130374 	0.276513311667 	-0.071314821619
 5.0229078325 	0.529034820638 	-0.146748779535
 4.84036516586 	0.633125505669 	-0.0382224435881
 4.65110278179 	0.577037818771 	0.120664150261
 4.75012324431 	0.450953960482 	0.0970834620387
 4.82825999636 	0.371424510102 	0.0040771053276
 4.68220356211 	0.392751482161 	0.0304284837068
 4.72428545512 	0.393837515952 	0.0219025167268
 4.7596106389 	0.43490995249 	0.0244690797192
 4.39331319644 	0.531199252308 	0.0940234467442
 3.84821125128 	0.483069994065 	0.133884502178
 3.81109304612 	0.246019829029 	0.0523158589321
 4.57941029297 	0.403554222081 	-0.194240336518
 4.96872233973 	0.48149740629 	-0.212200746745
 4.85294830315 	0.237221633077 	-0.0830788549766
 4.93278342366 	0.281752241265 	-0.0879566593303
 4.86452839167 	0.273212935789 	-0.0660112425181
 4.57230162201 	0.0874280180974 	0.00949149885305
 4.95684348522 	0.0523594356933 	-0.0606928550738
 5.33162215071 	0.1913824917 	-0.189843601248
 4.55763595137 	0.475868433566 	-0.070814665491
 3.65779934391 	0.514548670808 	0.204518430235
 3.72607782543 	0.353549451247 	0.240300231363
 4.16932406572 	0.23422576015 	0.129344214193
 4.34169407712 	0.019020739753 	0.039779826336
 4.55446337121 	-0.136198382143 	-0.172470556993
 4.60700376327 	-0.162068592538 	-0.152703594305
 4.40093065757 	-0.0299449697318 	-0.00187503773185
 4.06527003251 	0.162348462961 	-0.0422773167576
 3.86586987416 	0.182941351277 	-0.0176265873896
 4.35580028148 	0.0592177112961 	-0.0420890875369
 4.90171083544 	0.0848426565608 	-0.129839527108
 5.10577731934 	0.134188227858 	-0.203744582307
 5.27075825134 	0.103886802292 	-0.172642768906
 4.85441048745 	0.306354016605 	0.0381315752891
 4.43104759156 	0.492488197049 	0.152460258884
 4.37903093317 	0.25677633761 	0.138155687989
 4.354476774 	-0.00811059542004 	0.0726732988392
 4.47981867468 	-0.135327329175 	0.0285636928184
 4.60421185011 	-0.183605574704 	-0.00449946872172
 4.73801757949 	-0.139498322312 	-0.0480194900048
 4.72971195263 	-0.14186499536 	-0.0269935110911
 4.6771506506 	-0.192681280145 	0.0255947890093
 4.84349301746 	-0.198121206904 	-0.0211676821045
 5.01191150013 	-0.0862161440345 	-0.132349346587
 5.07377796856 	-0.0244437682616 	-0.138092484887
 5.27142207368 	-0.0698131613755 	-0.0950078989034
 5.50263926863 	-0.0545683936165 	-0.117997384731
 5.20596298718 	0.00907465457768 	-0.0563752394299
 4.83478652824 	0.072255731664 	0.0283584462488
 4.93054616177 	0.0516231096937 	-0.0406383607027
 5.02881669867 	0.0360246982824 	-0.0945134506487
 5.04222786275 	0.141529063503 	-0.0943089625557
 4.85035086692 	0.331096874065 	-0.0769068174796
 4.79963154497 	0.364985423543 	-0.130624124881
 5.04054630666 	0.304515868854 	-0.255140647252
 4.82610520496 	0.306780792212 	-0.239655012241
 4.33459837129 	0.206408012058 	-0.0976873466219
 3.90436961454 	0.0784664806822 	0.0698204651938
 4.24313113567 	-0.11378252312 	-0.00130178518969
 4.92030943624 	-0.153618990515 	-0.228181307841
 4.73825215316 	0.112008538464 	-0.172172529745
 4.53225102444 	0.286341500512 	-0.103948776192
 4.96943630909 	0.371630601932 	-0.168950106451
 5.047267683 	0.397943936113 	-0.0543985921589
 4.61417502585 	0.261101024474 	0.117004240063
 4.39403105027 	0.252762834942 	0.0772979172828
 4.11548706426 	0.250506051592 	0.0231952995598
 3.95436535254 	0.136746650569 	0.0315176850508
 4.46031939834 	0.187359676389 	-0.135961657872
 4.82362770156 	0.284376683867 	-0.240123371836
 4.51157150303 	0.42837088119 	-0.109731192519
 4.12433001853 	0.578191966166 	0.0339877087446
 3.93168640128 	0.530729230582 	0.0857565142489
 4.21533013917 	0.332684594137 	0.0524511729445
 4.46720899569 	0.190398795297 	0.0311317957624
 4.47756157962 	0.254348442314 	-0.00210164983614
 4.61355134248 	0.411641905828 	-0.041820133763
 4.64605093216 	0.489897408423 	-0.0359514352916
 4.53333415406 	0.535675145596 	-0.0299925258095
 4.34939704852 	0.587297072655 	0.0329836879736
 4.02953535627 	0.66156787315 	0.127159989043
 3.63343479021 	0.501471749436 	0.143998561496
 3.70881359922 	0.390102102416 	0.0189132170641
 3.7899114944 	0.508579288233 	-0.0248471516572
 3.81753829818 	0.50762106393 	0.0374253450203
 4.03615889827 	0.366971223539 	0.0225277475344
 3.94912063733 	0.286587905242 	0.0259716413675
 3.94986172064 	0.405501483743 	0.0346960294936
 4.00400545408 	0.486970776512 	0.0194641341906
 4.09640462556 	0.518327397421 	-0.0414437496841
 4.34923121654 	0.612184940256 	-0.0929436262159
 4.29491402015 	0.534181245296 	-0.0278365680132
 4.17238549205 	0.455600564801 	0.0353891244375
 4.23672746365 	0.420394335619 	0.041529607457
 4.28710097538 	0.3001187639 	-0.000733269133269
 4.27981608844 	0.231884161941 	-0.0542748536362
 4.49176898965 	0.212142352258 	-0.122885767828
 4.83349269133 	0.301971276153 	-0.154280671286
 4.96433818569 	0.349334236699 	-0.148393474428
 4.66616651567 	0.46650804361 	-0.0706232287857
 4.62646039781 	0.731399490821 	-0.00173360523391
 4.75598358845 	0.849878292928 	0.00946075174524
 4.1525800552 	0.777130715472 	0.131800022144
 3.60712910711 	0.68882411982 	0.304490196945
 3.37973936358 	0.343493884628 	0.353476050775
 3.36122903323 	-0.025369650338 	0.17255642504
 3.6779400987 	-0.104478650569 	0.038044377796
 3.86903633186 	-0.31802251585 	0.0222672283902
 3.98355698493 	-0.407404465787 	0.0277442760259
 4.20098201649 	-0.30683928342 	0.0728246250089
 4.30144272499 	-0.405469409487 	0.116680117156
 4.33860881223 	-0.571037129548 	0.135506619813
 4.37030525438 	-0.583404432029 	0.142549765653
 4.79173273067 	-0.36290202303 	0.104908586483
 5.43859419642 	-0.126701240411 	-0.0422867289404
 5.42725765124 	0.105804912799 	-0.0559820643243
 5.09132927291 	0.275135633799 	0.0628871295545
 4.81093404487 	0.579319771734 	0.112258322607
 4.36676034463 	0.796809001487 	0.110704554337
 4.19266598759 	0.720356223659 	0.0115247027233
 4.41492655338 	0.542854783938 	-0.0735158134053
 4.56713200954 	0.391935977726 	-0.040312792668
 4.45072792195 	0.39598882186 	0.033494205607
 4.3796059517 	0.38224241028 	0.0392164437571
 4.32193256805 	0.470149060126 	0.0893801063572
 4.07984215086 	0.396685851118 	0.157619937073
 4.07197240884 	0.320485423994 	0.06365267959
 4.56978664496 	0.318349801105 	-0.130645979552
 4.42823616328 	0.308046089254 	-0.0190811319105
 3.69699282402 	0.331907452946 	0.180635963717
 3.6321950691 	0.293623757401 	0.0905873335987
 3.79365011217 	0.177191366294 	0.0727646503817
 4.06014439637 	0.016431745858 	0.0649743247535
 4.18075824313 	0.0828916971759 	0.0770327269172
 4.03554028599 	0.082191637104 	0.0847255852649
 3.78157928459 	-0.0579523782078 	0.00540022547135
 4.10359706545 	0.286410851795 	-0.153026529974
 4.8575006058 	0.554376905245 	-0.243899120588
 4.86315282316 	0.511198681186 	-0.0878262580086
 4.35014830381 	0.50067535619 	0.112692829333
 4.04659603379 	0.275881510685 	0.0514820730565
 3.90999695198 	0.0934174387037 	-0.0216868348921
 3.82663409304 	-0.0308400983523 	0.129228303901
 3.78385981197 	-0.188159244856 	0.197136900618
 3.80244450065 	-0.222193761294 	0.107186347507
 3.93856205887 	-0.171817678187 	0.000313973225145
 3.81385234626 	-0.228369378495 	0.0712396679446
 3.79750448878 	-0.365460194128 	0.0366419828748
 3.96640682894 	-0.555209767005 	-0.139998836089
 4.04853643223 	-0.519245710027 	-0.195300735356
 4.00353307136 	-0.190176259917 	-0.167437366422
 3.81781894463 	0.130702294004 	-0.107568364606
 3.83619595833 	0.27376185314 	-0.0507455172647
 3.99715836853 	0.271183674957 	-0.00293566983206
 4.1088036327 	0.172450335075 	-0.0790530403606
 3.67346273766 	0.0688004829982 	-0.0871607698368
 3.69181420153 	0.208952722744 	0.161773599839
 4.38567982654 	0.438315255526 	0.146560903284
 4.54721853592 	0.668147761899 	-0.20120946404
 4.59128075865 	0.877830788661 	-0.306085859875
 4.64386669922 	0.865695877359 	-0.217148719147
 4.71334848034 	0.824829870506 	-0.183606439339
 5.11011028172 	0.674460214216 	-0.122221013601
 5.19678729882 	0.773876976878 	0.0111933638217
 4.69453438839 	0.838591449089 	0.176181542497
 4.82077703238 	0.380155540374 	0.14853056365
 4.79937739999 	0.131917092633 	0.0978502706068
 4.03653936356 	0.0875274299536 	0.177333445699
 4.04851310802 	0.0650021041108 	0.0415066171106
 4.45415955214 	0.12612183638 	-0.0335712959693
 4.69127557335 	0.196422079512 	0.057374573885
 5.0179948866 	0.213629820383 	0.0611994623546
 5.0677465937 	0.272500106022 	0.0412840201904
 5.09096525484 	0.366794282309 	-0.0157461954318
 5.19829955231 	0.516753065995 	-0.110987414351
 5.21004554251 	0.680255553677 	-0.146251755113
 5.05680006086 	0.777847881785 	-0.0764351040998
 4.54910539896 	0.798342270257 	0.0727894929133
 4.22248889943 	0.690470335304 	0.204487997725
 4.35914867756 	0.587014424303 	0.150622848033
 4.63842953961 	0.71228896065 	-0.0744443315905
 4.95066618167 	0.914436085469 	-0.262293620706
 4.79938393611 	0.996790730453 	-0.206509896535
 4.25409399788 	0.915234910727 	-0.0408836289362
 3.8432427683 	0.597400991953 	-0.008180018847
 4.07935674689 	0.380424299015 	-0.0928163495229
 4.57079139816 	0.437916196347 	-0.221350580791
 4.52030503214 	0.527288960432 	-0.199083040753
 4.29586048039 	0.535918871574 	-0.0733731390131
 4.04762997839 	0.573690835284 	-0.00268488344305
 3.63242201299 	0.60677081216 	0.0584402792672
 3.5229942936 	0.513160119861 	0.0531946237551
 3.78243926221 	0.362002968991 	0.0647164814538
 3.91079717826 	0.134067518289 	0.0898327219833
 3.77031119069 	0.160014834797 	0.0555380634731
 3.70262867777 	0.393982028254 	0.089315863364
 3.78967732696 	0.406470620739 	0.100100554926
 3.84610126966 	0.32295561713 	0.0656588165336
 3.86664655723 	0.173475700252 	0.106220407843
 3.83660861731 	0.0289735009653 	0.130096715193
 3.88970305554 	-0.00438896250405 	0.0138665220755
 4.37919420463 	0.12111977266 	-0.154292567271
 4.8777614579 	0.277434688299 	-0.155106521655
 5.00245879282 	0.224308079488 	-0.132043506055
 4.91772922339 	0.136203026467 	-0.157759214368
 4.60952360237 	0.0800414137479 	-0.0946530631237
 4.02338322592 	0.134750595141 	0.166103894008
 3.55838741787 	-0.0542694032004 	0.310046830568
 3.7037826559 	-0.321484247646 	0.189061875977
 4.22278995521 	-0.1958777735 	0.058503046384
 4.43534788914 	-0.0171013110405 	0.0443128392049
 4.10798923928 	-0.061021126331 	0.110547835642
 4.19037137169 	-0.0993471378609 	0.0422762071638
 4.4442400376 	-0.155838548272 	-0.0326755177833
 4.484166539 	-0.200887162967 	0.0286339016747
 4.4900615418 	-0.136242919951 	0.146512773116
 4.38607011868 	-0.286547289521 	0.203862452279