# vtk DataFile Version 3.0
array.1
ASCII
DATASET STRUCTURED_POINTS
DIMENSIONS 1 321 161
ORIGIN 1500.01 799.99 0.001
SPACING 0 1.25 1.25
POINT_DATA 51681
 FIELD attributes 1
U 3 51681 float
3.65859432884 	0.242990194178 	5.2679504228e-05
 3.57303825618 	0.222696016653 	-8.12041638468e-05
 3.45089094429 	0.0556650032752 	-2.8263252522e-05
 3.28692273323 	-0.122192657222 	0.000103190352768
 3.37290079983 	-0.346858730473 	0.00012111052916
 3.79264715783 	-0.513311484663 	-9.13414086421e-05
 4.10640653135 	-0.559155860057 	-4.69351662715e-05
 4.14271795803 	-0.459800881921 	0.000179159841262
 4.20107252417 	-0.194872250361 	5.50458792103e-05
 4.27351650401 	0.159532433353 	-0.000146644805622
 3.82822932585 	0.560672850452 	-0.000267250235103
 3.43769439749 	0.738679487035 	-0.000182776584328
 3.41290459863 	0.508689884406 	-0.000167048798948
 3.56257835863 	0.283523225092 	9.46222102957e-05
 3.62133542933 	-0.0191470313186 	0.000134339527763
 3.30608100638 	-0.396933342483 	-9.34025756339e-05
 3.72602428478 	-0.338607425258 	-0.000127811294631
 4.16351577428 	0.113649650622 	0.000201986902256
 3.74002796999 	0.302794839086 	-5.81992501594e-05
 3.7955690056 	0.0999169619915 	-0.000208985162972
 4.23454764274 	0.281274232379 	-0.000268935435224
 3.83558911252 	0.501079042218 	-0.000114727903525
 3.23257794571 	0.0637858777717 	8.2306600893e-05
 3.36608722771 	-0.314205695599 	8.45870425194e-06
 3.68292233809 	-0.301123546161 	-0.000136369027733
 3.66965631883 	-0.064479449533 	-0.00042623428403
 3.83496374774 	-0.0243655652119 	-0.000404798269287
 4.55024300177 	0.0116610186321 	0.000113984264848
 4.8432820883 	0.340745439607 	-0.000137572503907
 4.56710591896 	0.47760898672 	6.54800092859e-05
 4.39767439788 	0.38956582619 	0.000260753387141
 4.2704096971 	0.322783221154 	-0.000484223294913
 3.58761735181 	0.192243208757 	-0.000451185527876
 2.68328081785 	0.387585704524 	2.78920208273e-05
 2.41984257111 	0.667609103422 	0.0003135129773
 2.56193050387 	0.699442717527 	0.000297558700432
 2.54962108423 	0.668959959997 	-5.17330437278e-05
 2.40777829203 	0.261785545069 	-7.52572260085e-05
 2.5726227068 	-0.218501134818 	0.000277349987161
 3.14625660436 	-0.491564896919 	0.000317083266691
 3.43613245934 	-0.405267244793 	-5.51831246625e-05
 3.25278032919 	0.0260746528408 	-0.000334580918401
 3.13200088965 	0.39832226301 	-0.000111327024361
 2.96117102778 	0.566268213834 	-0.00042143490244
 2.41679811786 	0.970795531756 	-0.000471082267962
 2.06375806596 	1.33220898997 	-0.000337418432013
 2.27923382583 	1.11864062856 	2.98605427974e-05
 2.21851289553 	0.98089190026 	0.000219787473642
 1.86710548699 	0.753603036411 	0.00023849788456
 2.60468445022 	0.582411686224 	0.000117537427483
 2.98745927593 	0.742878422934 	-0.000127913923127
 2.23700492775 	0.564000250709 	6.12763694344e-05
 2.40870522052 	0.32130542917 	0.000403343527149
 2.25841079777 	0.395652110887 	-1.01516393289e-05
 2.26217986656 	0.429554230472 	-0.000121530593172
 3.08296602229 	0.556175570422 	5.60851291113e-06
 3.28751756883 	0.922420826002 	-8.9810690728e-05
 3.85053811826 	1.01085741421 	3.33153344095e-05
 3.81808651585 	0.726362550256 	9.80085162054e-05
 2.81906299795 	0.886333553841 	-3.92240584166e-05
 2.72510466576 	0.824013955305 	-0.000563929672304
 3.71769372316 	0.200145787242 	0.000174449293624
 4.69768108759 	0.0856782670253 	0.000293222692699
 5.0391451952 	-0.00419361087206 	-0.000146659200987
 4.69747039477 	0.209160264959 	-2.60021518702e-05
 4.10410649256 	0.422344633452 	-0.00018862300705
 4.03085466577 	0.19825191736 	1.54162275852e-05
 4.30602052549 	-0.18181531419 	0.000307308490448
 4.02369851856 	-0.401108072313 	0.000268253036888
 3.43251287455 	-0.380092542496 	0.000369660622706
 3.7727326628 	-0.358293071416 	0.000197330379911
 3.58889758202 	0.146433200552 	2.86438211342e-06
 2.45583733082 	0.248740360588 	0.000353234827116
 2.37320128379 	-0.0998684382749 	0.000152707594646
 3.51421535138 	-0.257378831031 	-0.000118624536846
 4.65689825602 	0.050837454748 	-0.000188698429244
 4.55254983088 	0.164124740684 	-0.0010740821103
 3.81632530778 	-0.177761107457 	-0.000668884034656
 3.57122771366 	-0.000733543224535 	-0.000129278157407
 3.61883224402 	0.434696157063 	-9.61965968992e-05
 3.54088775408 	0.571532663239 	-0.000228614441576
 3.59734487904 	0.323473617302 	-1.53334816229e-05
 3.92415950366 	0.410063434789 	-0.000375582014884
 4.03656938158 	0.848564931272 	-0.000572644606205
 3.7741730547 	0.765373805578 	-2.82773843742e-05
 3.62278578087 	0.195055226293 	0.000517242180698
 3.61702924697 	-0.122644302032 	0.000170877955321
 3.45335553188 	-0.275191692002 	0.000108937787164
 3.77476839381 	-0.332304159355 	-0.000177777876103
 4.06940932412 	-0.170259940938 	-0.000886441769361
 3.87735939438 	-0.00819655540288 	1.1707473068e-05
 3.58868842984 	0.427720114497 	7.13752978615e-05
 2.99460510754 	0.628653682133 	-0.000455019950938
 3.19186508195 	0.0288466795365 	-0.000261923359208
 3.87787017897 	0.181108091295 	1.56954415416e-05
 4.19526584147 	0.342473033766 	-0.000112015868727
 4.64176160544 	0.197529675075 	-0.000926840723102
 4.15457776134 	0.711829535263 	-5.14467110712e-05
 3.50053419336 	0.791062459066 	0.000277471367759
 3.59266030926 	0.350334050611 	-5.07142677543e-05
 3.38490224579 	0.0813209960419 	-0.000209443001562
 3.01218120034 	0.0402202759525 	-0.000198442545615
 2.9613708685 	0.00684806106327 	-8.3352292775e-05
 3.26602480048 	0.0961970023387 	-8.87582540733e-05
 3.32000103565 	-0.00644138376866 	-0.000235104192583
 3.12374322939 	-0.338008648875 	-4.92038314336e-06
 3.20382483932 	-0.435536386866 	0.000150793976657
 3.48169393368 	-0.144028700605 	-0.00012318248047
 3.46473823892 	-0.122779549661 	-0.00030667802738
 3.37391130546 	-0.337858058048 	-0.000112371005571
 3.47722816161 	-0.31357117719 	-0.000228368283889
 3.13731692766 	-0.268359805444 	-0.000334118510302
 2.68816563318 	-0.15707107064 	3.09968779889e-05
 2.82832848176 	0.0113697701086 	0.000244732146516
 3.10193971756 	0.0990866635984 	-0.000141939914958
 3.12267423618 	0.0524734008016 	-0.000110028542652
 3.0088169844 	0.0214293613797 	-0.000221910415671
 3.20616417909 	-0.0378383171677 	-3.62069010403e-05
 3.60042359628 	-0.157135805254 	-0.000493045898468
 3.17248605707 	0.0369589169204 	-0.000642094003509
 2.4498096053 	0.232585180887 	-9.87346419005e-05
 2.27874057095 	0.273369217366 	0.000358644312581
 2.61113166419 	0.282329241574 	0.000114930148637
 3.09042776112 	0.188306421327 	-0.000608656593883
 2.97955178613 	0.381518998316 	-0.00070170061828
 2.84597002059 	0.396762700838 	7.14737832601e-05
 3.49923241348 	0.384903963814 	-0.000536553553357
 3.6327360027 	0.510654486838 	-0.000223557167961
 2.9909788184 	0.131770080125 	0.000111813196226
 2.90931361672 	-0.246878635976 	0.0002225428949
 2.85141280486 	-0.282237847276 	-0.000274386507956
 2.72410470432 	-0.44225140997 	3.6878339105e-05
 3.43633964432 	-0.37590704727 	-6.6098001624e-05
 3.95201119106 	0.236852300227 	-0.000538146743616
 3.55829012763 	0.698054517148 	-8.57578607353e-06
 3.27287657738 	0.749293248577 	0.000169597452279
 3.28790998388 	0.516729674646 	0.000199247093615
 3.25477136282 	0.42107461519 	-2.84745361841e-05
 2.92322200173 	0.451683284094 	-0.000295676484455
 2.76921515052 	0.565569892547 	-0.000152734949906
 2.87623281274 	0.604425531252 	-0.00029060734432
 2.96333410068 	0.313096961851 	-0.000111974191091
 2.83366107524 	0.25162036972 	0.00014290261876
 2.5324759851 	0.28557305561 	8.31086835848e-05
 2.20931267196 	0.286999445954 	0.000211675254608
 1.96422257499 	0.149292223185 	0.000156081201732
 2.42971889985 	0.198289442048 	6.69205020125e-05
 3.07927927149 	0.323193868486 	-0.000249886270763
 3.53250384356 	0.154100916028 	-7.10585212025e-05
 3.51778886434 	0.0904324297827 	-0.000194156446617
 2.60313273191 	0.0654753204267 	-0.000403244928244
 2.04207473264 	0.0572114906867 	-4.08001138771e-05
 2.4269886852 	0.128218149554 	2.83247290083e-05
 2.80159638489 	0.0843809343929 	-4.42301711174e-05
 2.95855883251 	0.158843320199 	-0.000153144771169
 2.96541904618 	0.139326011592 	-0.000145994485844
 3.32063925119 	-0.00045615939162 	-0.000233578350737
 3.61554626312 	-0.0654939948661 	-0.00036293662065
 3.2889064748 	-0.105112215681 	-0.000142717849322
 2.97416645153 	-0.026134687782 	-6.57514854699e-05
 2.90752081029 	-0.170940369601 	-1.92645964098e-07
 3.0944934454 	-0.185397345901 	-0.000136928638641
 3.51850828536 	0.150841520823 	-0.000109598039993
 3.41399814003 	0.553577488261 	-0.000184831601342
 3.47278117068 	0.902721622609 	0.000247657334923
 3.82072949521 	1.06686522183 	-9.24446872688e-05
 3.29388323496 	1.00864055543 	-4.07875360205e-05
 2.89552978326 	0.972668799261 	0.00015117164342
 2.89790729629 	0.506762673815 	0.000411626838818
 2.76728229309 	-0.153481764663 	0.000310219502878
 2.59900999471 	-0.335316120408 	-8.51664251976e-05
 2.24208529853 	-0.368654938677 	-0.000113371054212
 1.89749911933 	-0.428477541008 	-0.000182968109909
 2.57434891117 	-0.109820645524 	4.01513340612e-05
 3.24110915735 	0.310622516736 	-3.43800507034e-05
 2.62899678585 	0.0392335291832 	-0.000119864075932
 2.01045732914 	-0.387499317735 	5.49853014515e-05
 2.70168796465 	-0.388985357931 	7.37473803564e-05
 4.4133016441 	-0.0285988356981 	0.000474603085687
 4.78682875462 	0.274162481548 	-8.84959933264e-05
 3.63102381689 	0.456742764321 	0.000243036006136
 2.83168502568 	0.756335807992 	0.000347828781596
 2.37906832115 	0.561845624874 	0.000119790493756
 2.63391575447 	0.396426571283 	-0.000114069295127
 3.22549045058 	0.260942324077 	-0.000602129190189
 3.50147804809 	0.285563708415 	-0.000243150101454
 3.83818014475 	0.483957626593 	-2.33849514161e-05
 3.91470533071 	0.620751522228 	-0.000179907001384
 3.49812185867 	0.738083226081 	-7.83047857714e-05
 3.05050291948 	0.268463135862 	0.00025039515977
 2.94782242735 	-0.0531416491621 	9.93096770581e-05
 3.89135535603 	0.117585169823 	-4.41006516645e-05
 3.81433225794 	0.619832862274 	-0.000632748508922
 2.47003127471 	0.74406619433 	0.000662001792895
 2.46746646333 	0.405046091764 	0.000251906623743
 3.01212306386 	0.213861684322 	-8.08919919474e-05
 3.15806179141 	-0.000363456530056 	0.000288205766354
 2.82286875126 	-0.0109583716364 	-4.14109446212e-05
 2.63737813599 	-0.286250363153 	2.39331104626e-05
 3.17463273695 	-0.449393270115 	-0.000106000808596
 3.73666209779 	0.106997534492 	-5.31278776729e-05
 3.88781385596 	0.358225549839 	-0.000691474321922
 3.71025733761 	0.331208239965 	-0.000534387083772
 3.35475048558 	0.315959554179 	-5.20032747753e-05
 3.27144788331 	0.0825257048385 	0.00031554676457
 3.01435623823 	-0.0206695234681 	-1.38321366866e-05
 3.03597049823 	0.134194359452 	-0.000117087912907
 3.20475807256 	0.0236665886271 	7.39012596468e-06
 2.87643915126 	-0.235405092958 	0.000189135440261
 2.97822292013 	-0.156474669153 	-7.30340425505e-05
 3.27624789297 	-0.216343191817 	-0.000155530650162
 3.49378832401 	-0.665954445944 	0.000180941541246
 3.60445375555 	-0.861554027071 	-0.000544157424615
 3.109394602 	-0.681937409823 	-0.000362014929446
 2.26645574176 	-0.323412945249 	-0.000243469373437
 2.22812962486 	-0.185282518165 	-6.09840433071e-05
 3.30570408709 	-0.145367788845 	-0.000171846806267
 3.70887810282 	-0.195293574404 	-8.83113338823e-05
 3.34214259832 	-0.405752247959 	-5.00267230123e-05
 2.77504645668 	-0.271498201106 	-0.000461872747234
 3.3124216143 	-0.139476206336 	-3.82612592261e-05
 4.30585954716 	-0.406267300984 	0.000586808446967
 4.18133389615 	-0.234759792453 	0.000188726990946
 4.10997734415 	0.318830586393 	-0.000280663256686
 4.05681746279 	0.415532883464 	-0.000319843625858
 4.18746039637 	0.316763000022 	-0.000123701553186
 4.68145323718 	0.307203888152 	-0.000420173082245
 4.41188157154 	0.330584929921 	-0.000367013682192
 3.98958405243 	0.424157401384 	4.82535937696e-05
 4.4625732868 	0.30238022754 	0.000249664528927
 4.01601567736 	0.657423297873 	-0.000157217532605
 2.56091379713 	0.777483908453 	8.33411460961e-05
 1.92760027264 	0.497635166132 	0.000184602301569
 2.0429234823 	0.695959939645 	-0.00037884479875
 2.62099973089 	0.67280736656 	0.000212690210218
 3.46840916736 	0.647875534732 	0.00034519429081
 3.77082730111 	0.669734136962 	0.000220619207789
 3.68401960209 	0.689261988519 	0.000236596948062
 3.54591068582 	0.744156343625 	6.09606058118e-05
 3.57996277052 	0.865572230655 	-6.72162347933e-05
 3.71305543986 	1.01040556397 	-7.19297470176e-05
 3.21855039839 	0.932738839273 	0.000111739585306
 2.76153007759 	0.581679229856 	0.000274405537612
 2.55608694199 	-0.0712213731687 	0.000437531860802
 2.6779527302 	-0.35104753772 	0.000323695541423
 3.23462345512 	0.106794202591 	-4.70952657219e-05
 3.18718866802 	0.347394440243 	-0.000544275333015
 2.80853225565 	0.204455085609 	-0.000486664274596
 2.53467583861 	0.0643028761576 	-0.000379446367771
 2.74973652413 	0.189933423465 	9.12474489897e-05
 3.11735519593 	0.518177543629 	-0.000200435531567
 3.01113402881 	0.847679137319 	-0.000390312200517
 2.744966 	0.823052836165 	0.000166223177092
 2.53607493682 	0.38702958633 	0.000370923114202
 2.6225794183 	0.100905141298 	-8.38536160504e-05
 2.95174510775 	0.220234042384 	-0.000232235040229
 3.26596617082 	0.325882871838 	-0.000124919156247
 3.44381301218 	0.0383875725037 	-2.02391043761e-05
 2.90590867961 	0.0983319566235 	0.000131416825099
 2.27615830168 	0.178749696369 	9.74947932927e-05
 2.52996083202 	0.131587474584 	0.000156007615875
 2.7639912732 	0.286651317697 	3.57796624315e-06
 2.79857979834 	0.0486985787946 	0.000104247787476
 3.06114558823 	-0.436516675699 	0.000291207810012
 3.36599772914 	-0.597596354825 	-2.20217393512e-05
 3.99370347217 	-0.147328123187 	-0.000133055546619
 4.08114260082 	0.025729369759 	-0.000438354134816
 3.92454616959 	0.0103532578488 	-0.000261090013703
 4.37992935412 	0.0892896002047 	-0.000426199981367
 4.28009733914 	0.351940182384 	-0.000247246742407
 3.56294101057 	0.589125745935 	7.34980117643e-05
 3.04348327148 	0.0437501410106 	0.000630126689873
 2.8591759233 	-0.330389376657 	-0.000186598269467
 2.92075501709 	-0.243294410961 	-0.000169072712156
 3.46460627105 	0.101384184023 	4.77856547206e-06
 3.08849436713 	0.722009574026 	4.54926802073e-05
 2.4327159821 	0.635095633726 	-2.91988292573e-05
 2.65075894833 	0.24111790885 	-0.000243904168812
 2.76411335227 	0.103160188064 	-0.000181868515446
 3.01702266482 	-0.190287055157 	5.66259062026e-05
 3.6403806906 	-0.8026289042 	0.000184347204053
 4.75623287922 	-0.880147219086 	0.000303666382597
 5.04431320443 	-0.719151429462 	-0.00045913068336
 3.80708754862 	-0.421427748869 	-0.00043351001092
 3.25031002102 	0.242954211159 	1.85678976194e-07
 3.46439063643 	0.540189518527 	-0.000403671990489
 3.57086343459 	0.440145721695 	-0.000421054943599
 3.80366221636 	0.0345537307093 	0.000277921786997
 4.12309518274 	-0.301793336502 	0.000109901235502
 4.41173979366 	-0.579240742457 	-0.00018445527896
 3.72294301673 	-0.581581656684 	-0.00039127628077
 2.81972272108 	-0.478996676808 	-0.000512695628544
 3.02796500282 	0.104050924326 	-0.000136673120154
 3.69834918173 	0.825751952985 	-0.000221498421492
 4.30128838342 	1.002600172 	-2.35126698417e-05
 4.12927038107 	0.813114680544 	0.000116925157939
 3.28848172952 	0.313177704737 	0.000203978151896
 2.97261761695 	-0.0747597760181 	0.000313424056026
 3.18663160608 	-0.524028594418 	-0.000125446158204
 3.71487994875 	-0.648827473497 	-8.4696909622e-05
 4.47507659 	-0.603663885416 	0.000176301866508
 4.76504488115 	-0.205299370516 	-0.00027353444385
 4.36248168308 	0.690836542592 	-0.000428622367389
 3.6418338439 	1.00471385018 	-0.000145375439914
 3.11130174445 	0.768390853141 	-9.70799543498e-05
 3.14280614403 	0.418064543068 	-0.000180676181828
 3.40451209002 	0.468715147644 	-0.000168535388462
 3.54912212478 	0.643056721405 	-0.000138414758016
 3.54594979403 	0.724682799129 	-0.000183217163875
 3.48199513616 	0.706446687301 	-8.62147431651e-05
 3.35831465355 	0.486262676593 	3.63648771112e-05
 3.53342414365 	0.362032017901 	-8.98755268945e-07
 4.11303535031 	0.492369976386 	9.53551820479e-05
 4.49516384591 	0.451457788645 	-3.82451007762e-05
 4.38745018747 	0.231641282112 	-4.79308662707e-05
 3.86332897859 	0.0471913910666 	-0.000147098897981
 3.81495140516 	-0.254070863942 	0.000179159194201
 4.32697682212 	-0.297262997942 	9.95435274835e-05
 4.52272045046 	-0.170292706401 	-0.000502357000998
 4.42058484888 	-0.0717852316304 	-0.00057578500407
 4.24097323395 	-0.269206911891 	-0.000483352832669
 4.49997180675 	0.209175226574 	0.044759350558
 4.62013850029 	0.194975299338 	0.0551354244703
 4.69992530623 	0.103368160249 	0.0889659753358
 4.64738547301 	0.0333452253223 	0.102888859274
 4.5692432789 	-0.00933809022884 	0.0819786956099
 4.85266163612 	-0.120763590445 	0.077070631989
 5.23022358362 	-0.203754272792 	0.0596821090922
 5.29004178729 	-0.12912128983 	-0.0312962777625
 5.17502471113 	0.0490410711839 	-0.179102273363
 5.22529453922 	0.287036304498 	-0.256624793746
 5.40099020255 	0.424621147111 	-0.165454514445
 5.09297106457 	0.487595175595 	-0.0123397833121
 4.51369258182 	0.426294034006 	0.0932997278646
 4.52152860295 	0.274967748729 	0.147824598561
 4.88184395502 	0.134899772643 	0.166055788654
 5.06821804457 	0.00383655883959 	0.133628677636
 5.44823503749 	0.00521626659447 	0.067645456623
 5.81185828065 	0.10650833743 	0.0132869089338
 5.77403242096 	0.188023001427 	-0.0227449446229
 5.64825431587 	0.163272120788 	-0.0195240600287
 5.36993697861 	0.195719381258 	0.041480227668
 4.84287594659 	0.280637865665 	0.135066440371
 4.63194269678 	0.155084472469 	0.151067748223
 5.04777290064 	0.0525688506735 	-0.00377058573811
 5.5453170398 	0.0952785905558 	-0.188199240379
 5.61854743128 	0.286167483699 	-0.178276354478
 5.37629509669 	0.429981436215 	-0.0241085288889
 5.28029857155 	0.42567918955 	-0.0252192392112
 5.28886418723 	0.401238414226 	-0.0636557506065
 5.29733109383 	0.371585177317 	-0.0452771206807
 5.3388162715 	0.241687565878 	-0.152283817304
 5.180309608 	0.231458040642 	-0.216715742187
 5.37619127367 	0.543241989113 	-0.143936400756
 5.58834672001 	0.796280696701 	-0.0465518080636
 5.19499484591 	0.996261640816 	0.0342113393906
 5.14886169109 	1.18219847492 	0.00358842941449
 5.12143487935 	1.19905933442 	-0.00547954857932
 4.50381670208 	1.09260247438 	0.121364017323
 3.79654866133 	0.839716919457 	0.252089590055
 3.6360904367 	0.633845116425 	0.181897425655
 3.92061915848 	0.563158617377 	-0.0278117973139
 4.31028799377 	0.637261350976 	-0.138939576347
 4.49171733119 	0.861867877749 	-0.155141809497
 4.11473920423 	0.758953746377 	-0.121316373061
 3.77104966498 	0.33926622408 	-0.0814639166357
 3.79866262104 	0.144689677664 	0.0635080648443
 4.09364213327 	0.190007391729 	0.230494311714
 4.40358280171 	0.274959651404 	0.259676991645
 4.32806044713 	0.299799953507 	0.178553594528
 4.37116964594 	0.338931196078 	0.0781614595845
 4.39168148349 	0.680485646923 	0.107410395901
 3.89497492105 	0.93113193665 	0.300605717386
 3.97888380352 	0.817477510585 	0.375113887719
 4.5714242692 	0.682756136386 	0.227681193831
 5.12292634845 	0.823721056532 	0.166718562619
 5.32873686572 	1.01367819304 	0.167063809596
 4.78889950578 	0.948506523341 	0.137279083408
 4.31739427011 	0.717746394517 	0.140268130783
 3.76491395323 	0.512705588903 	0.0782681180602
 3.24284018964 	0.618204324478 	-0.000137064152686
 3.2877668167 	0.491348622935 	0.16752052543
 3.82696411179 	0.198510408886 	0.268133346817
 4.43410563343 	0.196671853632 	0.0691726776158
 4.83797714174 	0.316122560232 	-0.132223011012
 5.04703653117 	0.527336346526 	-0.194294264558
 4.84429521224 	0.63777311086 	-0.063099765114
 4.62153237329 	0.620999067709 	0.109606134626
 4.69316245356 	0.491005914097 	0.10220274249
 4.77792835115 	0.383448584377 	0.0143140632954
 4.65244986697 	0.370567543833 	0.034526163161
 4.70884783983 	0.372661775876 	0.0119976274801
 4.74600014598 	0.424342742004 	0.0117020421942
 4.41970979938 	0.521148244927 	0.0632456344772
 3.90749117618 	0.535364341861 	0.0834288904838
 3.8525975626 	0.388396414009 	0.00490801228496
 4.5741270845 	0.543923902016 	-0.212227111813
 4.91036048671 	0.583766586986 	-0.189510634715
 4.798069222 	0.320672266971 	-0.0701307578978
 4.91583123942 	0.313082886132 	-0.100957335323
 4.8301961079 	0.256949931622 	-0.0781160780686
 4.53395618037 	0.0707249205381 	-0.0025438492457
 4.99782252205 	0.071058259327 	-0.0831217051088
 5.43659736608 	0.179271179211 	-0.206916169402
 4.66409852539 	0.427729429855 	-0.106395520127
 3.70481244641 	0.506932289186 	0.160935676157
 3.7011928674 	0.360682724813 	0.244816804594
 4.11891415612 	0.232397841959 	0.153974405906
 4.29862381691 	0.0480661741546 	0.0529817646384
 4.51905136543 	-0.102516064886 	-0.158141367532
 4.62543006841 	-0.180344706832 	-0.172788800892
 4.48453568129 	-0.0585426082651 	-0.0703183875856
 4.13915942975 	0.140037012923 	-0.0974359528204
 3.88960998271 	0.204256401987 	-0.0411610709974
 4.29655675537 	0.133034035352 	-0.0510353659109
 4.82504773411 	0.169206041461 	-0.146433745101
 5.03411057245 	0.198870124757 	-0.194213431203
 5.26838752352 	0.0739338204102 	-0.193746763032
 4.9428424214 	0.239104491463 	-0.0356390964356
 4.45532733703 	0.476258712469 	0.121509187234
 4.35276531588 	0.280771006573 	0.131520949202
 4.35453639825 	0.0230017509174 	0.0739840293449
 4.49834166439 	-0.120557665215 	0.0364964213702
 4.60836202919 	-0.178124628939 	-0.00370662865728
 4.72277145541 	-0.145763631972 	-0.0411540111696
 4.70048545342 	-0.153846344501 	-0.00918723505738
 4.65108210318 	-0.190242810987 	0.0382600392513
 4.83865956356 	-0.193773982264 	-0.0154307897309
 5.00663924011 	-0.0847798120864 	-0.119892990921
 5.02212417252 	-0.0111502171417 	-0.112249862744
 5.208666315 	-0.041735600254 	-0.0742290332677
 5.48267428649 	-0.0565213355465 	-0.0998520435454
 5.220936157 	-0.0356345686767 	-0.0478738014676
 4.83366213196 	0.0747235687359 	0.0208771649835
 4.90346269666 	0.0932068664236 	-0.0326905722484
 5.03725274203 	0.0558907248358 	-0.0709749307064
 5.12449503617 	0.134661264735 	-0.0743477077547
 4.92884918623 	0.312321116002 	-0.0673692923948
 4.79872571708 	0.358263765129 	-0.107806271734
 4.99889248894 	0.301441003361 	-0.218112105395
 4.77868983232 	0.288959071307 	-0.227457992827
 4.26642090721 	0.170343076437 	-0.105524009465
 3.85269344578 	0.0347538531277 	0.0658484111603
 4.23414689244 	-0.156462918557 	0.0176971146303
 4.97518563968 	-0.227423875755 	-0.220529887947
 4.80926152554 	0.0039709221788 	-0.186532551509
 4.55975970813 	0.191880913045 	-0.11541629746
 4.96122930969 	0.29994008924 	-0.186007044884
 4.98363835557 	0.37086686068 	-0.0622812712223
 4.57843512302 	0.282581615007 	0.118953489291
 4.4076696949 	0.28610475313 	0.079303031779
 4.11751173736 	0.290742401797 	0.0169592356933
 3.96725147337 	0.231393786688 	0.00688144779205
 4.47602217881 	0.285728234221 	-0.158829316687
 4.84182487902 	0.316703032287 	-0.264939914645
 4.54090883146 	0.443315127402 	-0.142268010661
 4.11694810623 	0.589001091752 	0.0162798254343
 3.89892453622 	0.53478353252 	0.0841929785152
 4.19919914126 	0.350704358949 	0.057015001781
 4.5052752884 	0.213214659311 	0.0306833655329
 4.5404867039 	0.28036745768 	0.000145173687222
 4.63791323709 	0.443628745538 	-0.0420468449278
 4.63480616911 	0.521976761518 	-0.0357532662
 4.52701013817 	0.5402533549 	-0.0207211328964
 4.35648297667 	0.561057696715 	0.0413354799091
 4.01234739084 	0.626213673158 	0.140243970148
 3.60491556709 	0.467779678831 	0.157658419795
 3.72352932074 	0.36619953978 	0.0330189645304
 3.83088361054 	0.488731719914 	-0.00709066305571
 3.82139702264 	0.496944986212 	0.0558667699032
 4.01874161013 	0.370772295977 	0.0483246566812
 3.96103413855 	0.290490232109 	0.0449595927953
 3.9963363183 	0.418343166113 	0.0326121866987
 4.03761565025 	0.518461067011 	0.0177360963612
 4.10598173123 	0.562600383448 	-0.0317648491102
 4.33846133002 	0.649888573908 	-0.0842691453317
 4.26797852897 	0.548483324765 	-0.0242177020941
 4.16527662027 	0.466860929984 	0.0430687043895
 4.23073312445 	0.425485502334 	0.0560292706765
 4.26090345042 	0.289069103862 	0.00565740758363
 4.24697298615 	0.220110014088 	-0.0480010006814
 4.47276315636 	0.20766903906 	-0.11548774204
 4.81448001075 	0.293275935563 	-0.15810370526
 4.95199357904 	0.329903875444 	-0.164298826911
 4.7028598685 	0.454489642189 	-0.0996023315478
 4.64420829293 	0.736566547569 	-0.0154257933165
 4.75730819846 	0.855656059961 	0.0133937501778
 4.20860611494 	0.784104817606 	0.117943979023
 3.62351403466 	0.688543820092 	0.300246942791
 3.33179499354 	0.332949973306 	0.376065828037
 3.32156834517 	-0.00961022129393 	0.203237923859
 3.61991814238 	-0.104528016942 	0.0777152697897
 3.82361623824 	-0.332796203997 	0.0578545461115
 3.99509054737 	-0.393697804118 	0.0507909725034
 4.20934970098 	-0.312619115318 	0.0959602009989
 4.29708008936 	-0.424265753589 	0.143134359085
 4.34998352831 	-0.627119576229 	0.158009483568
 4.43238179478 	-0.641175462912 	0.145639172254
 4.88475148912 	-0.342246556032 	0.0759693857076
 5.48139727643 	-0.108706190315 	-0.0852022584097
 5.43557761749 	0.0779318622496 	-0.0736650730377
 5.13015388289 	0.250121820561 	0.0596146997484
 4.88213253616 	0.587836627242 	0.115033467703
 4.39620466802 	0.84105159134 	0.146649019761
 4.13053968226 	0.764341267043 	0.0658938480098
 4.32908032951 	0.566021311036 	-0.0422586222765
 4.53155245095 	0.393392211553 	-0.0474562808926
 4.4599027248 	0.39756393292 	0.00778892515598
 4.39134495263 	0.391344990473 	0.0171726261501
 4.32161235033 	0.479309561677 	0.0812999498076
 4.04898679924 	0.409415189143 	0.167794669928
 4.02476210511 	0.317762133667 	0.0882189515952
 4.51616517365 	0.310796987199 	-0.115822651299
 4.40386833229 	0.295333304385 	-0.0355176759421
 3.70281663154 	0.327095939086 	0.160278958307
 3.61883006155 	0.323077485697 	0.0953708408126
 3.76736918256 	0.227440985102 	0.0934022801868
 4.05118485887 	0.0413376647527 	0.088538240245
 4.21214959468 	0.0802283170286 	0.0880281561047
 4.05181389892 	0.0863444255078 	0.0950767453354
 3.85524341252 	-0.0321468917083 	-0.000578494345094
 4.22125630948 	0.364014453754 	-0.148451601075
 4.85708724291 	0.602666093975 	-0.194265846394
 4.82940486488 	0.514380032967 	-0.0645765805458
 4.33696455847 	0.523675544798 	0.119916326402
 3.98540731427 	0.28158263856 	0.0936162838539
 3.83601174569 	0.0577645280567 	0.0250043564893
 3.77135977074 	-0.0929012018413 	0.139781158335
 3.75427509002 	-0.241056090319 	0.183608213181
 3.82649004785 	-0.225125477472 	0.0975600141336
 3.9289399111 	-0.157805355478 	0.0129298381724
 3.74825238892 	-0.256590335251 	0.0932514187808
 3.73432901099 	-0.412685849926 	0.0529453810375
 3.90736705011 	-0.591746948658 	-0.110704624484
 4.08276653328 	-0.523461132719 	-0.185666131246
 4.10362208488 	-0.165688718351 	-0.185216562573
 3.87178414187 	0.140141842274 	-0.104152839092
 3.83813016926 	0.25672828031 	-0.0461134004727
 3.9668413767 	0.262703366173 	-0.0180542407872
 4.05361421369 	0.205200920202 	-0.086111208676
 3.66961647617 	0.101273723969 	-0.0959688443
 3.75772727798 	0.243942306588 	0.105480795352
 4.42116292287 	0.472953518776 	0.0966349199435
 4.54345151035 	0.676647592698 	-0.200948634485
 4.54599446448 	0.888558354394 	-0.281648822834
 4.55973536752 	0.862150782194 	-0.179307880377
 4.62280786124 	0.839789183534 	-0.17384243046
 5.04204204667 	0.655729291453 	-0.147032329792
 5.21787693877 	0.695243076184 	-0.0266033339612
 4.71944378835 	0.753950716841 	0.138764558655
 4.78160340219 	0.301025394842 	0.107087293186
 4.78373941355 	0.0549078941263 	0.0617371012996
 4.0641865825 	0.0474146957239 	0.152381166481
 4.09891681027 	0.070180515114 	0.0256757844824
 4.48278750689 	0.101395473951 	-0.0371888009398
 4.70348529066 	0.178264094712 	0.0418856622754
 5.04156391407 	0.229313407048 	0.0360372224631
 5.09546856144 	0.300390912375 	0.0293287228855
 5.10465538808 	0.388639325244 	-0.00624025035343
 5.18900760403 	0.514627670163 	-0.0952049118245
 5.2186398439 	0.664715999186 	-0.150088602521
 5.06023016404 	0.766239844174 	-0.0924579254909
 4.53694216132 	0.785647418962 	0.0551959792546
 4.20234797333 	0.699459460004 	0.188954602393
 4.32486377536 	0.615564602425 	0.156551824915
 4.63380749907 	0.745939464944 	-0.0604497265831
 4.96389693112 	0.936651652267 	-0.243294605073
 4.80671676092 	0.991444321704 	-0.16631682939
 4.22167997983 	0.908849962853 	0.0125845376141
 3.75838453346 	0.609601529901 	0.0459767051358
 4.0078154754 	0.41787062979 	-0.0478063975278
 4.52981160108 	0.453154803141 	-0.190367338117
 4.47816676636 	0.499878466678 	-0.177605159808
 4.23927893832 	0.491014592208 	-0.0442831608555
 4.01061960166 	0.507974177871 	0.019538195981
 3.62397797004 	0.538636388016 	0.0621863855421
 3.51484156938 	0.49670111591 	0.0536346401807
 3.755283804 	0.413882663983 	0.0682088479844
 3.89791550008 	0.182763286141 	0.0889565402626
 3.83171613485 	0.175390594769 	0.0390503433819
 3.76396183455 	0.408132942557 	0.0757778721654
 3.79095945168 	0.428915123467 	0.10372579392
 3.83513241993 	0.342552814031 	0.0762333404384
 3.84606394115 	0.188522840431 	0.114635782428
 3.81996484026 	0.0455962377725 	0.134602943038
 3.89486076373 	0.0261501494302 	0.0157862299239
 4.39246692548 	0.176354458909 	-0.166665082586
 4.87442646022 	0.320360273957 	-0.180173491922
 4.95244801589 	0.240757911628 	-0.15140160232
 4.8567106838 	0.105373702511 	-0.172976144492
 4.58335579104 	-0.0012964742529 	-0.109286842404
 4.00821171188 	0.0531089217561 	0.152728343101
 3.54919968812 	-0.124832506238 	0.293029731958
 3.75938247508 	-0.344614396953 	0.164654196303
 4.31677022013 	-0.158958662715 	0.0395768578089
 4.48750022292 	-0.00370851169329 	0.0381571652682
 4.13729910076 	-0.0295564535524 	0.123274356043
 4.20644049762 	-0.0412837992652 	0.0787649256508
 4.42120888478 	-0.105438632542 	-0.000886500086427
 4.46602523195 	-0.147849279 	0.0299504516694
 4.49049184741 	-0.137247473169 	0.112360833613