# vtk DataFile Version 3.0
array.1
ASCII
DATASET STRUCTURED_POINTS
DIMENSIONS 1 321 161
ORIGIN 1500.01 799.99 0.001
SPACING 0 1.25 1.25
POINT_DATA 51681
 FIELD attributes 2
T 1 51681 float
299.999521888
 299.999472762
 299.999478196
 299.999472218
 299.99950431
 299.999766951
 300.000141429
 300.000195965
 300.000052266
 300.000131133
 300.000050269
 299.99979439
 299.999703648
 299.999755685
 299.999795057
 299.99982472
 299.999737615
 299.999845023
 300.000057943
 299.99996091
 299.999917183
 299.999914193
 299.999745646
 299.999533076
 299.999562175
 299.999858987
 300.000115555
 300.000158399
 300.000058176
 299.999917339
 299.999795349
 299.999890922
 300.00003489
 299.999962978
 300.000020966
 300.000288115
 300.00019499
 299.999681572
 299.999325558
 299.999304073
 299.99932639
 299.999136157
 299.999018751
 299.999145229
 299.999367141
 299.999614509
 299.999732037
 299.999700893
 299.999706148
 299.999627224
 299.999492101
 299.999652642
 300.000088347
 300.000457117
 300.000567228
 300.000440033
 300.00028559
 300.000300884
 300.000195175
 299.999977555
 299.999835557
 299.999780995
 299.999646127
 299.999336273
 299.999417762
 299.999603732
 299.999536377
 299.999638148
 299.999806939
 299.9996391
 299.999383357
 299.999478427
 299.99958532
 299.999676236
 300.000255558
 300.000414136
 299.999975326
 299.999764606
 299.999730124
 299.999708291
 299.999590625
 299.999523268
 299.999618409
 299.999898256
 299.999999953
 299.999872132
 299.999729338
 299.999660859
 299.999768796
 299.999825801
 299.999793896
 299.999787685
 299.999797348
 299.999897489
 299.999960342
 300.000168648
 299.999932021
 299.999420067
 299.999596803
 299.999731028
 299.999615522
 299.999645566
 299.99969522
 299.999646958
 299.999648063
 299.999764053
 299.999881313
 299.999850805
 299.999772435
 299.999807426
 299.999936685
 300.000162106
 300.0000665
 299.999788579
 299.999630735
 299.999510157
 299.999636339
 299.99984562
 299.999822763
 299.999787029
 299.999957743
 300.000123591
 300.000007515
 299.999777643
 299.99977739
 299.999742717
 299.999652955
 299.999637715
 299.999677077
 299.999721459
 299.999689101
 299.999776296
 299.999899122
 299.999686548
 299.999523339
 299.999602528
 299.999631886
 299.999610371
 299.999666132
 299.999698373
 299.99966742
 299.999754955
 299.999789818
 299.999719216
 299.999747439
 299.999739735
 299.99970974
 299.999920422
 300.000030642
 299.99983026
 299.999719175
 299.99973143
 299.999797631
 299.999834826
 299.999793451
 299.999711678
 299.999683465
 299.999697506
 299.999619074
 299.999625576
 299.999700181
 299.999735139
 299.999791984
 299.99985958
 299.999930411
 299.999937506
 299.999797252
 299.999592965
 299.999533313
 299.999609329
 299.99972072
 299.999784818
 299.999797106
 299.999713979
 299.999627633
 299.999860168
 299.999967161
 299.999323947
 299.998753895
 299.998803611
 299.9989274
 299.999277754
 299.999809699
 300.000012057
 299.999718495
 299.999446448
 299.999466195
 299.999520321
 299.999673684
 299.999879351
 300.000061339
 300.000340438
 300.000349742
 300.000107566
 300.000087391
 300.000098417
 300.000030577
 299.999829481
 299.999615277
 299.999633627
 299.999844754
 300.000045793
 300.000020956
 299.999800159
 299.999732418
 299.999775101
 299.999469604
 299.999293831
 299.999451151
 299.999517762
 299.999463798
 299.999528412
 299.99971681
 299.999663546
 299.999679321
 299.999744985
 299.999539688
 299.999442919
 299.999640496
 299.999830651
 299.999769785
 299.999961827
 300.000135844
 300.00004847
 300.000155244
 300.000096944
 300.000056877
 300.000265797
 300.000046956
 299.999539753
 299.999261927
 299.999152229
 299.999210516
 299.999316501
 299.999112484
 299.998777609
 299.998613863
 299.998627389
 299.998767308
 299.998730776
 299.998553939
 299.998499474
 299.998754781
 299.999046102
 299.999164596
 299.99910476
 299.999051605
 299.999478944
 299.999957899
 299.999870014
 299.999506564
 299.999421849
 299.999630518
 299.999857788
 300.000028856
 300.000099333
 300.000110752
 300.000104236
 299.999982895
 299.999920271
 299.999985116
 300.000025502
 299.999949626
 299.999838469
 299.999938091
 299.999942254
 299.999745269
 299.999666921
 299.999623195
 299.999694805
 299.999842752
 299.999712958
 299.999626867
 299.999706948
 299.999670127
 299.99974519
 299.999846244
 299.999792534
 299.999736762
 299.999739529
 299.999934053
 300.000381487
 300.000594486
 300.000345007
 300.000015141
 299.999860836
 299.99999042
 300.000055544
 300.000035148
 300.0001814
 300.000197306
 300.000166489
 300.000082842
 300.000060502
 300.000256373
 300.000258548
 299.999982367
 299.999703871
 299.999600857
 299.999429492
 299.999271605
 299.999170954
 299.999106483
 299.99922053
 299.99939976
 299.999428675
 299.999385757
 299.999460813
 299.999527232
 299.999597898
 299.999669035
 299.999699311
 299.999806744
 299.999926897
 300.000125219
 300.000320039
 300.000263979
 300.000243793
 300.000370598
 300.000355669
 300.000179044
 299.999573183
 299.999601894
 299.999704975
 299.999738283
 299.999726742
 299.999934478
 300.00023888
 300.000239086
 300.00008907
 300.000118279
 300.000172662
 300.000074234
 299.999913745
 299.999868795
 299.999900284
 299.999983312
 299.999911564
 299.999829685
 299.999849957
 299.999876833
 299.999931461
 299.999892413
 299.999744889
 299.999705698
 299.999779561
 299.999800199
 299.999790273
 299.999852337
 300.000021764
 299.999956251
 299.999716732
 299.999777588
 300.00013912
 300.000039092
 299.999702999
 300.000276153
 300.001045595
 300.000444753
 299.999559349
 299.999399083
 299.999328767
 299.999253635
 299.999201284
 299.999226956
 299.999516354
 299.999889139
 299.999809442
 299.999582116
 299.999627573
 299.99960596
 299.999441542
 299.999614959
 299.999751413
 299.999809662
 300.000008972
 299.999974604
 300.000037984
 300.000223195
 300.000071358
 299.999879147
 299.999813831
 299.999768991
 299.99968594
 299.999389006
 299.999333433
 299.999456831
 299.999454536
 299.999572323
 299.999696505
 299.999540613
 299.999357894
 299.999438463
 299.999475229
 299.999564987
 300.000049539
 300.000237353
 299.999918516
 299.999737756
 299.999772277
 299.999819217
 299.999768758
 299.999693164
 299.999754397
 299.999975778
 300.000031876
 299.999902795
 299.999811558
 299.999794925
 299.999843379
 299.999785137
 299.999744887
 299.999859274
 299.999993393
 300.00016228
 300.000119353
 300.000067294
 299.999926973
 299.999693197
 299.999809606
 299.999790897
 299.999525296
 299.999483384
 299.9996087
 299.999659643
 299.999706479
 299.999744438
 299.99976627
 299.999805526
 299.999844874
 299.999850309
 299.999896665
 299.999920052
 299.999712566
 299.999638116
 299.999729369
 299.999740591
 299.999806884
 299.99993508
 299.999963838
 299.999853719
 299.999845782
 299.999823182
 299.999685268
 299.999726692
 299.999894815
 299.999697736
 299.999545927
 299.999698632
 299.999824675
 299.999838162
 299.999683442
 299.999672218
 299.999816532
 299.999725782
 299.999625923
 299.999662484
 299.999702561
 299.9996733
 299.999674578
 299.999784167
 299.999789044
 299.999808177
 299.999791996
 299.999709316
 299.999750423
 299.999785896
 299.999786787
 299.99990379
 299.999962367
 299.999868556
 299.999760813
 299.999680905
 299.999712973
 299.999795633
 299.999828321
 299.999815507
 299.99978572
 299.999740873
 299.99967958
 299.999770052
 299.999974689
 300.000001657
 299.999975329
 300.000011646
 300.000113884
 300.000152573
 299.999934747
 299.99965161
 299.999548561
 299.999571447
 299.999677201
 299.999735933
 299.999557958
 299.999346123
 299.999307301
 299.99934247
 299.999323332
 299.999066735
 299.998917927
 299.999072558
 299.99910589
 299.999163934
 299.999381282
 299.999394067
 299.999138469
 299.999104421
 299.999324157
 299.999471087
 299.999581592
 299.999739161
 299.999910278
 300.00005205
 300.000014312
 300.000003372
 300.000108283
 300.000158802
 300.000134994
 299.999901712
 299.99968514
 299.999793051
 300.000000264
 299.999944689
 299.999892515
 299.999905236
 299.999799233
 299.999699734
 299.999400004
 299.99919928
 299.999385033
 299.999563532
 299.999516676
 299.999550703
 299.999611621
 299.999319693
 299.999210793
 299.999432471
 299.999445152
 299.999400466
 299.99944618
 299.999565156
 299.99959379
 299.99973456
 299.999873589
 299.999873456
 300.000079924
 300.000098187
 299.999980178
 300.000203713
 300.000049305
 299.99952302
 299.999319447
 299.999239804
 299.99932373
 299.999537079
 299.999431627
 299.999090236
 299.998937385
 299.998988183
 299.999168026
 299.999195981
 299.998923761
 299.998676231
 299.9988367
 299.99923989
 299.999442915
 299.999390685
 299.999314314
 299.999417637
 299.999632662
 299.999863788
 299.999838272
 299.999632032
 299.999657312
 299.999750983
 299.999837882
 299.999940747
 300.000024009
 300.000072935
 299.999939653
 299.999878437
 300.000020188
 300.000107164
 300.000056912
 299.999984122
 300.00002915
 299.99998473
 299.999753015
 299.999551507
 299.999487461
 299.99962101
 299.999826166
 299.999794944
 299.999699658
 299.999650439
 299.999468316
 299.999615061
 299.999975553
 299.99991572
 299.999660738
 299.999577927
 299.999718254
 300.000206952
 300.000512882
 300.000446298
 300.00041665
 300.000271953
 300.000078907
 299.999999995
 300.000118296
 300.00037816
 300.000504018
 300.000518815
 300.000274386
 299.999997423
 300.00011838
 300.000178654
 300.000030807
 299.99983448
 299.999728134
 299.999541851
 299.999433722
 299.999319332
 299.999159931
 299.99930718
 299.99947052
 299.999477145
 299.999465011
 299.999545769
 299.999608749
 299.999704015
 299.999808944
 299.999768603
 299.999778302
 299.999919585
 300.000105842
 300.000188604
 300.000043408
 300.000004605
 300.000155186
 300.00020608
 300.000135628
 299.999672029
 299.999708034
 299.999864467
 299.999962811
 299.99996177
 300.000131081
 300.000342009
 300.00030022
 300.000149355
 300.000101788
 300.000305501
 300.000389366
 300.000160805
 299.999994106
 299.999987695
 300.000123212
 300.000092755
 299.999795555
 299.999565582
 299.999636755
 299.999763308
 299.999759445
 299.999690287
 299.999664711
 299.99968925
 299.999572306
 299.999475705
 299.999647341
 299.999960587
 300.000104752
 300.00014251
 300.000157924
 300.00035549
 300.000378166
 300.000058931
 300.000538102
 300.001409787
 300.000900127
 299.999873644
 299.999548771
 299.999421162
 299.999420516
 299.999427216
 299.999406642
 299.999646275
 299.999928761
 299.999852148
 299.999558511
 299.999450582
 299.999486918
 299.999412728
 299.999728436
 299.999785814
 299.999560889
 299.999852826
 300.00023819
 300.000427079
 300.000172094
 299.99958673
 299.999424881
 299.999650644
 299.99971684
 299.999706509
 299.999459228
 299.999274521
 299.999331912
 299.999353724
 299.999496397
 299.999668087
 299.999629344
 299.999614621
 299.999678991
 299.999495613
 299.999407578
 299.999767737
 300.000015355
 299.999799328
 299.999639127
 299.999730906
 299.999827793
 299.999897363
 299.999957108
 300.000030494
 299.999963812
 299.999871596
 299.999893589
 299.999909279
 299.99985115
 299.99976741
 299.999699528
 299.999748783
 299.999937626
 300.000133682
 300.000294556
 300.000172319
 299.99995666
 299.999928536
 299.999906206
 299.999917207
 299.999775155
 299.999398194
 299.999289934
 299.99946967
 299.999597673
 299.999698138
 299.999733643
 299.999691263
 299.999711187
 299.999744182
 299.999752326
 299.999786032
 299.999708975
 299.999635278
 299.999865204
 300.000155695
 300.000219022
 300.000175152
 300.00019307
 300.000148279
 299.999960458
 299.999805526
 299.999767687
 300.000025346
 300.000162626
 300.000123003
 299.99991212
 299.999830763
 300.000119587
 300.000308778
 300.000285219
 299.999929948
 299.999692451
 299.999721333
 299.999729572
 299.999832412
 299.999894482
 299.999867554
 299.999802562
 299.999771987
 299.999902573
 299.999911368
 299.999880838
 299.999826579
 299.999703566
 299.99970677
 299.999765141
 299.999876188
 299.999885413
 299.999790587
 299.999781587
 299.999684751
 299.999592089
 299.999649581
 299.999756886
 299.999853225
 299.999926233
 299.999921476
 299.9998395
 299.999793051
 299.999966712
 300.000277571
 300.000344222
 300.000218666
 300.000155873
 300.000294083
 300.000384028
 300.000148681
 299.999815475
 299.999644941
 299.999585335
 299.9996191
 299.999538996
 299.999035222
 299.998659276
 299.998712936
 299.998611074
 299.998709645
 299.999168031
 299.999443136
 299.999656515
 299.999610594
 299.999202423
 299.998922859
 299.998646449
 299.998544054
 299.998929459
 299.999311037
 299.999333169
 299.999420487
 299.999705137
 299.999743551
 299.999676865
 299.999742075
 299.999945707
 300.000080001
 300.000162611
 300.000227751
 300.000073121
 299.999966136
 300.000106393
 300.000192782
 299.999931452
 299.999778382
 299.999962534
 299.999891475
 299.999624617
 299.999387014
 299.999235263
 299.999408125
 299.999645925
 299.999673885
 299.999670375
 299.999466612
 299.998747876
 299.998440017
 299.999022671
 299.999398789
 299.999297295
 299.999001422
 299.999049033
 299.999232745
 299.999228717
 299.999454451
 299.999697228
 299.999862394
 299.999941165
 299.999898688
 300.000153255
 300.000066756
 299.999609645
 299.999505577
 299.999405763
 299.999488904
 299.999846826
 299.999918505
 299.999669085
 299.999627196
 299.999805927
 299.999759308
 299.999517078
 299.999253066
 299.999010536
 299.999035251
 299.999489652
 299.999758752
 299.999645304
 299.999522118
 299.999545367
 299.999606403
 299.999886553
 300.000263609
 300.000092298
 299.999853745
 299.999714745
 299.999644853
 299.999725667
 299.999891835
 300.000097927
 300.00001865
 299.999916249
 300.00005763
 300.000218779
 300.000177232
 300.000052985
 300.000063682
 300.000060418
 299.999855135
 299.999561503
 299.999454797
 299.999604565
 299.999802313
 299.999785284
 299.999681967
 299.999573831
 299.999456408
 299.999737636
 300.000182781
 300.000112225
 299.999797351
 299.999616457
 299.99959889
 299.999958401
 300.000318267
 300.000483174
 300.000650657
 300.000586635
 300.000269968
 300.000128105
 300.00033891
 300.000656198
 300.000774916
 300.000733316
 300.000497675
 300.000115842
 300.000029306
 300.000045454
 300.000037788
 299.999995537
 299.999911132
 299.999734595
 299.999654212
 299.999602219
 299.999443652
 299.999462135
 299.999500323
 299.999455224
 299.999454852
 299.999573812
 299.999676937
 299.999790913
 299.999875925
 299.999796749
 299.999715888
 299.999761666
 299.999825494
 299.99975328
 299.999629114
 299.999668101
 299.999775025
 299.99985604
 299.999900752
 299.99974157
 299.999729285
 299.999800524
 299.999915729
 300.000015631
 300.000145278
 300.00028556
 300.00028232
 300.000188949
 300.000172107
 300.000339411
 300.000497259
 300.000392538
 300.000178474
 300.000098639
 300.000151897
 299.999954025
 299.999656915
 299.999573908
 299.999594805
 299.999573077
 299.999599344
 299.999648097
 299.999571717
 299.99950771
 299.999504958
 299.999701481
 300.000027367
 300.000269643
 300.000480167
 300.000687155
 300.000483138
 300.000348395
 300.000592982
 300.000719695
 300.000984086
 300.001012977
 300.000461626
 299.999794786
 299.999564808
 299.999601341
 299.99954684
 299.999509748
 299.999532129
 299.999645557
 299.999723053
 299.99981946
 299.99975278
 299.999511919
 299.999564136
 299.99972272
 300.000057865
 300.000268513
 300.000063103
 300.00020434
 300.000815622
 300.000965338
 300.000356267
 299.999472266
 299.999190556
 299.999723203
 299.999956022
 299.999804504
 299.999483298
 299.999251006
 299.999274017
 299.999284304
 299.999481168
 299.999766327
 299.999820034
 299.999819291
 299.999851639
 299.999638527
 299.999463855
 299.999687069
 299.999860311
 299.999748931
 299.999654839
 299.999667283
 299.999755132
 299.999898341
 300.000054395
 300.000131693
 299.99989606
 299.999747366
 299.999897735
 299.999905927
 299.999758396
 299.999683151
 299.999690247
 299.999797745
 299.999937631
 299.99996624
 299.999942757
 299.999923671
 299.999853807
 299.999804426
 299.999777964
 299.99976374
 299.99967159
 299.999456108
 299.999452714
 299.999665233
 299.999783408
 299.999814119
 299.999870838
 299.999888262
 299.999829504
 299.999694386
 299.999658579
 299.999674576
 299.999621847
 299.999734099
 299.999981501
 300.000205336
 300.000260088
 300.00020363
 300.00034069
 300.000284656
 299.99993606
 299.999724492
 299.999937341
 300.000517041
 300.000493171
 300.000231557
 300.000214688
 300.000235145
 300.000324134
 300.000401189
 300.000497533
 300.000272417
 299.999947786
 299.999740307
 299.999651039
 299.999873237
 299.999997544
 299.999863593
 299.999799444
 299.999838435
 299.999933249
 299.999910382
 299.999874385
 299.999869612
 299.999799723
 299.999750615
 299.999709861
 299.999779373
 299.999742407
 299.999572421
 299.999540176
 299.999524766
 299.999541372
 299.99966132
 299.999803874
 299.999903833
 299.999977544
 299.999969215
 299.999895033
 299.999906373
 300.000123314
 300.000347352
 300.000336363
 300.000181192
 300.000180081
 300.000423343
 300.000503948
 300.000313152
 299.999996815
 299.999725267
 299.999710466
 299.999612326
 299.999184541
 299.998453754
 299.998031094
 299.998289362
 299.998474447
 299.998687526
 299.999161512
 299.999442348
 299.999879505
 300.000054831
 299.99953788
 299.999152421
 299.998738069
 299.998569858
 299.998919103
 299.999115306
 299.998930818
 299.999110235
 299.999660941
 299.999678103
 299.999592768
 299.999792789
 299.999928575
 299.999971968
 300.000077945
 300.000165434
 300.00006829
 300.000077793
 300.000146102
 300.000090329
 299.99993255
 299.999688065
 299.999744164
 299.999799551
 299.999663223
 299.999484168
 299.999343819
 299.999464821
 299.999677863
 299.99975282
 299.999624396
 299.999260004
 299.99846486
 299.998149284
 299.998761123
 299.99909554
 299.998860841
 299.998408129
 299.998019979
 299.998054369
 299.998170884
 299.998504562
 299.999163257
 299.99957555
 299.999786287
 299.999918228
 300.000132397
 300.000063144
 299.99975202
 299.999726993
 299.999764603
 299.999899049
 300.000184432
 300.000275427
 300.0002496
 300.00024329
 300.000250309
 299.999928494
 299.999518616
 299.999393416
 299.999401768
 299.999401761
 299.999517741
 299.999780345
 299.99973479
 299.99957265
 299.999585085
 299.999762786
 299.999926296
 300.000251739
 300.000468914
 300.000308048
 300.000017584
 299.999719232
 299.999587219
 299.999754835
 300.000087915
 300.000107384
 300.00000997
 300.00007785
 300.000217148
 300.000111991
 299.999893819
 300.000000585
 300.000096045
 299.999832743
 299.999512184
 299.999452205
 299.999565246
 299.999694071
 299.999717842
 299.999684901
 299.999757405
 299.999817608
 299.999973193
 300.00015918
 300.000059314
 299.99992173
 299.999836895
 299.999784264
 299.999901893
 300.000181699
 300.000340767
 300.000343141
 300.000372657
 300.000399754
 300.00044503
 300.000513349
 300.000612679
 300.000570182
 300.000539641
 300.000514036
 300.000258215
 300.00006517
 300.000000518
 299.999973082
 299.999946612
 299.999904757
 299.999815135
 299.999704402
 299.999622465
 299.999556279
 299.999513566
 299.999547655
 299.999523992
 299.999406861
 299.999451767
 299.999611737
 299.999776375
 299.999786801
 299.999680167
 299.999580844
 299.999463947
 299.999313159
 299.999158374
 299.999201223
 299.999325816
 299.999391401
 299.999572157
 299.99973369
 299.999813421
 299.999848355
 299.999889659
 299.999988968
 300.000078034
 300.000087319
 300.000153793
 300.00017398
 300.000158498
 300.000259094
 300.000396661
 300.00050061
 300.000417881
 300.000224054
 300.000135226
 300.000142087
 299.999856615
 299.999589994
 299.99965663
 299.999656609
 299.999514157
 299.999491029
 299.999565223
 299.999590892
 299.999567017
 299.999565952
 299.999845336
 300.00021277
 300.000348851
 300.000378296
 300.000316418
 300.000000331
 299.999982382
 300.000290283
 300.000563205
 300.000901515
 300.000749935
 300.000129393
 299.999646177
 299.999560193
 299.999655155
 299.999610253
 299.99957885
 299.999585887
 299.999615596
 299.999727578
 299.9999352
 299.999979348
 299.999662566
 299.999511042
 299.99968564
 299.999982165
 300.000237836
 300.000182456
 300.000092393
 300.000338201
 300.000661016
 300.000652398
 300.00027696
 299.999894998
 300.000073859
 300.000282408
 300.000082027
 299.999644034
 299.999423957
 299.999523993
 299.999474343
 299.999546863
 299.999836018
 299.999944619
 299.999875845
 299.999764665
 299.999629501
 299.99963787
 299.999721851
 299.999732611
 299.999714348
 299.999714864
 299.999731008
 299.999841024
 299.9999653
 299.999998716
 300.000062201
 300.000019065
 299.999857037
 299.999826915
 299.999828291
 299.999806209
 299.99978146
 299.999733561
 299.99983386
 299.999937721
 299.999762002
 299.99971019
 299.99988938
 299.999769033
 299.9995846
 299.999574233
 299.999616305
 299.999684008
 299.999678361
 299.999781831
 299.999987024
 300.00007139
 300.000069042
 300.000122037
 300.000190535
 300.000136172
 299.999995207
 299.999901363
 299.999813214
 299.999740119
 299.999762605
 299.999823978
 299.999984384
 300.000127035
 300.000146626
 300.000382211
 300.0003885
 299.999891976
 299.999621992
 299.999917735
 300.000338257
 300.000306385
 300.000227993
 300.000298094
 300.000375379
 300.000437313
 300.000311824
 300.000228113
 300.000230749
 300.00011009
 299.999862614
 299.999653626
 299.999710913
 299.999874508
 299.999904976
 299.999802904
 299.999786355
 299.999938752
 299.999961516
 299.999939426
 299.999940032
 299.999936952
 299.999930514
 299.999821951
 299.999755847
 299.999658276
 299.999525356
 299.999548922
 299.999672638
 299.999784175
 299.999892891
 300.000011711
 300.000059673
 300.000092616
 300.000022106
 299.99991656
 300.000013205
 300.000270415
 300.000409789
 300.000263989
 300.000125
 300.000219787
 300.000433738
 300.000467571
 300.000314728
 300.000039017
 299.999819385
 299.999947164
 299.999541557
 299.998676422
 299.998073054
 299.997893842
 299.998355737
 299.998872362
 299.998959091
 299.999023749
 299.999198627
 299.999718321
 300.000145631
 299.999901796
 299.99958245
 299.999204458
 299.998869112
 299.99873493
 299.998688314
 299.998660067
 299.998991152
 299.999440892
 299.999556396
 299.999691699
 299.999752146
 299.999701175
 299.999880514
 300.000126551
 300.000195763
 300.00002475
 299.999945371
 299.99994243
 299.999842384
 299.999757126
 299.999574218
 299.999505393
 299.999550362
 299.999576975
 299.999436507
 299.999274961
 299.999356159
 299.999516039
 299.999580803
 299.999452989
 299.999182769
 299.998712469
 299.998382357
 299.998425527
 299.99829768
 299.997985013
 299.997861516
 299.997528145
 299.997340706
 299.997342363
 299.997395267
 299.998075361
 299.998925233
 299.999557332
 299.999816033
 299.999877906
 299.99984145
 299.999653186
 299.999710412
 300.00001142
 300.000271088
 300.000415669
 300.000474237
 300.000543719
 300.00044899
 300.000187022
 300.000095975
 300.000012908
 299.999775781
 299.999657875
 299.99957014
 299.999449232
 299.99967491
 299.999741979
 299.999646658
 299.999431013
 299.999428747
 299.99970169
 299.999816058
 299.999982592
 300.000080991
 300.000120276
 299.999875242
 299.999628249
 299.999748512
 300.000008321
 300.000070574
 300.000030313
 300.000099014
 300.00018684
 299.999992352
 299.999791003
 299.999979808
 300.000026536
 299.999675004
 299.999350159
 299.999331676
 299.999455553
 299.999667999
 299.99983121
 299.999732497
 299.999826499
 299.999958447
 299.999989637
 300.000076913
 300.0000186
 299.999883107
 299.999843264
 299.999862091
 299.999902736
 300.000081649
 300.000158889
 300.00012483
 300.000103931
 300.000195873
 300.000372022
 300.000441241
 300.000443071
 300.000407926
 300.000521634
 300.000535415
 300.000321595
 300.000160833
 300.000020103
 299.99989389
 299.999809577
 299.99978903
 299.999726988
 299.999597793
 299.999496677
 299.999473476
 299.999525034
 299.999678939
 299.999747642
 299.999554863
 299.999412681
 299.999511233
 299.99972378
 299.99976399
 299.999649874
 299.999584205
 299.999533082
 299.99939521
 299.999257782
 299.999311522
 299.999406669
 299.999521254
 299.999670015
 299.999787849
 299.999912945
 299.99997827
 300.000033516
 300.000121836
 300.000133153
 300.000082145
 300.000098371
 300.000087965
 300.000070368
 300.00019866
 300.000323215
 300.000293316
 300.00011317
 299.999993054
 299.999980744
 299.999993697
 299.999852807
 299.999637226
 299.999617362
 299.999565936
 299.999458636
 299.999532937
 299.999574546
 299.999489249
 299.999551781
 299.999709469
 299.999849469
 299.999999666
 299.999971862
 299.999860017
 299.999692798
 299.999618429
 299.999822636
 300.000159564
 300.000532299
 300.000651188
 300.000349218
 300.00001529
 299.999979225
 300.000013142
 299.999876934
 299.999676448
 299.999588095
 299.999559586
 299.999562033
 299.999676629
 299.999947108
 300.000061414
 299.999865198
 299.999621969
 299.999586837
 299.999766457
 300.000037166
 300.000196926
 300.000132886
 300.000117467
 300.000448931
 300.000770777
 300.000727894
 300.00026647
 299.999997384
 300.000271682
 300.000253294
 299.999790496
 299.999681151
 299.99992618
 299.999824668
 299.999654995
 299.999845346
 300.000000558
 299.9999285
 299.999739064
 299.999645067
 299.999754241
 299.999854132
 299.999860078
 299.999774528
 299.999767935
 299.999862673
 299.999979795
 300.000075163
 300.000029333
 300.000020294
 300.000046883
 299.999886401
 299.999731486
 299.999751108
 299.999815648
 299.999784854
 299.999717313
 299.999845903
 299.999929781
 299.999769947
 299.999895193
 300.000113663
 299.999901534
 299.999694451
 299.999552956
 299.999480295
 299.999704673
 299.999890483
 300.000024488
 300.00018143
 300.000220887
 300.000215397
 300.000262528
 300.000314127
 300.000267427
 300.000190704
 300.000130432
 300.000029285
 299.999986151
 299.999998333
 299.999952076
 299.99999741
 300.000140858
 300.000244787
 300.00046309
 300.000437045
 299.999984142
 299.999781726
 300.00004492
 300.000352825
 300.000373938
 300.000358841
 300.000459255
 300.000467378
 300.000556484
 300.000553773
 300.00027772
 300.000161496
 300.000118434
 299.999952019
 299.999745662
 299.999674863
 299.999875316
 300.000050801
 299.999898397
 299.999822413
 299.999981019
 300.000012483
 300.000008161
 299.999980599
 299.999935139
 299.999929278
 299.999863144
 299.999801179
 299.999728009
 299.999697155
 299.999795317
 299.999983414
 300.000188016
 300.0003364
 300.000323645
 300.000223442
 300.000217916
 300.000132476
 299.99998409
 300.000043195
 300.000245164
 300.000337449
 300.000244026
 300.000177595
 300.000210204
 300.000303659
 300.000300945
 300.000159217
 300.000032997
 300.000021572
 300.000059136
 299.999362064
 299.998278526
 299.997920895
 299.998226507
 299.998739834
 299.999247896
 299.999439461
 299.999526288
 299.999530393
 299.999637536
 300.000051023
 300.000181458
 299.99997217
 299.999700032
 299.999354343
 299.998929157
 299.998804162
 299.999030071
 299.999304519
 299.999418074
 299.999636998
 300.000021869
 300.000024509
 299.999809885
 299.999846048
 300.00002461
 300.000220908
 300.000140103
 299.999949597
 299.999859203
 299.999710737
 299.999568055
 299.999437067
 299.999318729
 299.999291628
 299.999275092
 299.999111891
 299.999016151
 299.999099249
 299.999185894
 299.999204261
 299.999204064
 299.999169674
 299.998972244
 299.998569136
 299.998322883
 299.99829699
 299.998181682
 299.998250667
 299.998493512
 299.998373851
 299.997938233
 299.997471532
 299.99738295
 299.997826413
 299.998610037
 299.999132269
 299.999220008
 299.999280655
 299.999282552
 299.999411704
 299.999789498
 300.000159916
 300.000287256
 300.000282032
 300.000323674
 300.000373342
 300.000173874
 300.000118944
 300.000121362
 299.999902681
 299.999710343
 299.999513348
 299.999365716
 299.999375802
 299.999388047
 299.999463077
 299.999395005
 299.999243336
 299.999459869
 299.999533807
 299.999416573
 299.999559151
 299.999920965
 299.999978995
 299.999814713
 299.999826472
 299.999943753
 300.000001428
 299.999989817
 300.000029455
 300.000053456
 299.999928628
 299.999828224
 299.999904141
 299.999814165
 299.999538501
 299.999348598
 299.999340664
 299.999476632
 299.999726505
 299.999855566
 299.999706438
 299.999816691
 300.000065517
 300.000140457
 300.000253503
 300.000297083
 300.000148469
 300.000026087
 299.999997765
 299.99996129
 299.999997053
 300.000021342
 299.999988606
 299.999877802
 299.999859123
 299.99999467
 300.00014658
 300.000222719
 300.000267911
 300.000395223
 300.000471619
 300.000497187
 300.000413437
 300.000167306
 299.999966321
 299.999843837
 299.999754951
 299.999724671
 299.999643457
 299.999577991
 299.999558189
 299.999512154
 299.999620464
 299.999806087
 299.999726795
 299.999480448
 299.999407578
 299.99949899
 299.999608971
 299.999644391
 299.999661414
 299.999749592
 299.999809823
 299.999853054
 299.99992048
 299.999970306
 300.00014117
 300.000264645
 300.000195331
 300.000092491
 300.000160502
 300.000127597
 300.000155433
 300.000133824
 300.000132239
 300.000126781
 300.00007553
 300.000065158
 300.000033549
 299.999993974
 299.99997613
 299.999872009
 299.999833403
 299.99985703
 299.999829102
 299.999735626
 299.999597128
 299.999535499
 299.999450304
 299.99938885
 299.999569574
 299.999621545
 299.999518057
 299.999578791
 299.999691878
 299.999713687
 299.99975944
 299.999757795
 299.999639748
 299.999651561
 299.999864337
 300.000088057
 300.000220532
 300.000421506
 300.000557405
 300.000459216
 300.000230991
 300.000349789
 300.000611859
 300.000391581
 299.999957476
 299.99958924
 299.9993238
 299.999439271
 299.999661784
 299.999764136
 299.999927817
 300.000011952
 300.000015431
 299.99994176
 299.999853921
 299.999921536
 300.000148023
 300.000303562
 300.000353792
 300.000511396
 300.000645725
 300.000556482
 300.000253291
 300.000132439
 300.000423932
 300.000382365
 299.999919093
 299.999774254
 300.000042337
 300.000137312
 299.999962959
 299.99992267
 299.999971189
 299.999915495
 299.999790589
 299.999784373
 299.999858583
 299.99998593
 300.000068562